
                                 *****************
                                 * O   R   C   A *
                                 *****************

                                            #,                                       
                                            ###                                      
                                            ####                                     
                                            #####                                    
                                            ######                                   
                                           ########,                                 
                                     ,,################,,,,,                         
                               ,,#################################,,                 
                          ,,##########################################,,             
                       ,#########################################, ''#####,          
                    ,#############################################,,   '####,        
                  ,##################################################,,,,####,       
                ,###########''''           ''''###############################       
              ,#####''   ,,,,##########,,,,          '''####'''          '####       
            ,##' ,,,,###########################,,,                        '##       
           ' ,,###''''                  '''############,,,                           
         ,,##''                                '''############,,,,        ,,,,,,###''
      ,#''                                            '''#######################'''  
     '                                                          ''''####''''         
             ,#######,   #######,   ,#######,      ##                                
            ,#'     '#,  ##    ##  ,#'     '#,    #''#        ,####,    ,#,          
            ##       ##  ##   ,#'  ##            #'  '#       #'       ,# #          
            ##       ##  #######   ##           ,######,      #####,      #          
            '#,     ,#'  ##    ##  '#,     ,#' ,#      #,     #,   #      #          
             '#######'   ##     ##  '#######'  #'      '#     '####' #    #          



                #########################################################
                #                        -***-                          #
                #          Department of theory and spectroscopy        #
                #                                                       #
                #                      Frank Neese                      #
                #                                                       #
                #     Directorship, Architecture, Infrastructure        #
                #                    SHARK, DRIVERS                     #
                #        Core code/Algorithms in most modules           #
                #                                                       #
                #        Max Planck Institute fuer Kohlenforschung      #
                #                Kaiser Wilhelm Platz 1                 #
                #                 D-45470 Muelheim/Ruhr                 #
                #                      Germany                          #
                #                                                       #
                #                  All rights reserved                  #
                #                        -***-                          #
                #########################################################


                         Program Version 6.1.0  -  RELEASE   -
                                (GIT: $679e74b$)
                          ($2025-06-10 18:02:51 +0200$)


 With contributions from (in alphabetic order):
[Max-Planck-Institut fuer Kohlenforschung]                               
  Daniel Aravena         : Magnetic Suceptibility                        
  Michael Atanasov       : Ab Initio Ligand Field Theory (pilot matlab implementation)
  Alexander A. Auer      : GIAO ZORA, VPT2 properties, NMR spectrum      
  Ute Becker             : All parallelization in ORCA, NUMFREQ, NUMCALC 
  Giovanni Bistoni       : ED, misc. LED, open-shell LED, HFLD           
  Dmytro Bykov           : pre 5.0 version of the SCF Hessian            
  Marcos Casanova-Páez   : Triplet and SCS-CIS(D). UHF-(DLPNO)-IP/EA/STEOM-CCSD. UHF-CVS-IP/STEOM-CCSD   
  Vijay G. Chilkuri      : MRCI spin determinant printing, contributions to CSF-ICE 
  Pauline Colinet        : FMM embedding                                 
  Dipayan Datta          : RHF DLPNO-CCSD density                        
  Achintya Kumar Dutta   : EOM-CC, STEOM-CC                              
  Nicolas Foglia         : Exact transition moments, OPA infrastructure, MCD improvements    
  Dmitry Ganyushin       : Spin-Orbit,Spin-Spin,Magnetic field MRCI      
  Miquel Garcia-Rates    : C-PCM and meta-GGA Hessian, CCSD/C-PCM, Gaussian charge scheme 
  Tiago L. C. Gouveia    : GS-ROHF, GS-ROCIS                             
  Yang Guo               : DLPNO-NEVPT2, F12-NEVPT2, CIM, IAO-localization        
  Andreas Hansen         : Spin unrestricted coupled pair/coupled cluster methods 
  Ingolf Harden          : AUTO-CI MPn and infrastructure                
  Benjamin Helmich-Paris : MC-RPA, TRAH-(SCF,CASSCF), AVAS, COSX integrals, SCF dyn. polar., MC-PDFT, srDFT 
  Lee Huntington         : MR-EOM, pCC                                   
  Robert Izsak           : Overlap fitted RIJCOSX, COSX-SCS-MP3, EOM     
  Riya Kayal             : Wick's Theorem for AUTO-CI, AUTO-CI UHF-CCSDT 
  Emily Kempfer          : AUTO-CI RHF CISDT and CCSDT, approximate NEVPT4
  Christian Kollmar      : KDIIS, OOCD, Brueckner-CCSD(T), CCSD density, CASPT2, CASPT2-K, improved NEVPT2 
  Axel Koslowski         : Symmetry handling                             
  Simone Kossmann        : meta-GGA functionals, TD-DFT gradient, OOMP2, (MP2 Hessian; deprecated post 5.0) 
  Lucas Lang             : DCDCAS, Hyperfine gauge corrections, ICE-SOC+SSC
  Marvin Lechner         : AUTO-CI (C++ implementation), FIC-MRCC        
  Spencer Leger          : CASSCF response                               
  Dagmar Lenk            : GEPOL surface, SMD, ORCA-2-JSON               
  Dimitrios Liakos       : Extrapolation schemes; Compound Job, Property file
  Dimitrios Manganas     : Further ROCIS development; embedding schemes. LFT, Crystal Embedding 
  Dimitrios Pantazis     : SARC Basis sets                               
  Anastasios Papadopoulos: AUTO-CI, single reference methods and gradients 
  Taras Petrenko         : pre 6.0 DFT Hessian and TD-DFT gradient,  ECA, NRVS 
  Petra Pikulova         : Analytic Raman intensities                    
  Peter Pinski           : DLPNO-MP2, DLPNO-MP2 Gradient                 
  Shashank Vittal Rao    : ES-AILFT, MagRelax                            
  Christoph Reimann      : Effective Core Potentials                     
  Marius Retegan         : Local ZFS, SOC                                
  Christoph Riplinger    : Optimizer, TS searches, QM/MM, DLPNO-CCSD(T), (RO)-DLPNO pert. Triples 
  Michael Roemelt        : Original ROCIS implementation, recursive CI coupling coefficients
  Masaaki Saitow         : Open-shell DLPNO-CCSD energy and density      
  Barbara Sandhoefer     : DKH picture change effects                    
  Yorick L. A. Schmerwitz: GMF and freeze-and-release deltaSCF, NEB S-IDPP initial path                    
  Kantharuban Sivalingam : CASSCF convergence/infrastructure, NEVPT2, NEVPT3, NEVPT4(SD), FIC-MRCI and CEPA variants
  Bernardo de Souza      : ESD, SOC TD-DFT                               
  Georgi L. Stoychev     : AutoAux, RI-MP2 NMR, DLPNO-MP2 response, X2C  
  Van Anh Tran           : RI-MP2 g-tensors                              
  Willem Van den Heuvel  : Paramagnetic NMR                              
  Zikuan Wang            : NOTCH, Electric field optimization            
  Frank Wennmohs         : Technical directorship and infrastructure     
  Hang Xu                : AUTO-CI-Response properties                   
                                                                         
[FACCTs GmbH]                                                            
  Markus Bursch, Nicolas Foglia, Miquel Garcia-Rates, Ingolf Harden, Hagen Neugebauer, Anastasios Papadopoulos, 
  Christoph Riplinger, Bernardo de Souza, Georgi L. Stoychev                                                    
                                                                 
  APM, various basis sets, CI-OPT, improved COSX, DLPNO-Multilevel,           
  DOCKER, DRACO, updates on ESD, Fragmentator, GOAT, IRC, LR-CPCM, L-BFGS, MBIS, meta-GGA TD-DFT gradient, ML-optimized integration grids, 
  MM, NACMEs, nearIR, NEB, NEB-TS, NL-DFT gradient (VV10), 2- and 3-layer-ONIOM, interface openCOSMO-RS, QMMM,   
  Crystal-QMMM, RESP, rigid body optimization, SF, symmetry and pop. for TD-DFT, various functionals, SOLVATOR                                   
                                                                         
[Other institutions]                                                     
  V. Asgeirsson          : NEB                                           
  Christoph Bannwarth    : sTDA-DFT, sTD-DFT, PBEh-3c, B97-3c, D3        
  Giovanni Bistoni       : ETS/NOCV, ADLD/ADEX, COVALED                  
  Martin Brehm           : Molecular dynamics                            
  Ronald Cardenas        : ETS/NOCV                                      
  Martina Colucci        : COVALED                                       
  Sebastian Ehlert       : rSCAN, r2SCAN, r2SCAN-3c, D4, dhf basis sets  
  Marvin Friede          : D4 for Fr, Ra, Ac-Lr                          
  Lars Goerigk           : TD-DFT with DH, B97 family of functionals     
  Stefan Grimme          : VdW corrections, initial TS optimization, DFT functionals, gCP, sTDA/sTD-DF 
  Waldemar Hujo          : DFT-NL                                        
  H. Jonsson             : NEB                                           
  Holger Kruse           : gCP                                           
  Marcel Mueller         : wB97X-3c, vDZP basis set                      
  Hagen Neugebauer       : wr2SCAN, Native XTB                           
  Gianluca Regni         : ADLD/ADEX                                     
  Tobias Risthaus        : pre 6.0 range-separated hybrid DFT and stability analysis
  Lukas Wittmann         : regularized MP2, r2SCAN double-hybrids, wr2SCAN        
                                                                         
We gratefully acknowledge several colleagues who have allowed us to      
interface, adapt or use parts of their codes:                            
  Ed Valeev, F. Pavosevic, A. Kumar             : LibInt (2-el integral package), F12 methods 
  Garnet Chan, S. Sharma, J. Yang, R. Olivares  : DMRG                   
  Ulf Ekstrom                                   : XCFun DFT Library      
  Mihaly Kallay                                 : mrcc  (arbitrary order and MRCC methods)
  Frank Weinhold                                : gennbo (NPA and NBO analysis)           
  Simon Mueller                                 : openCOSMO-RS                            
  Christopher J. Cramer and Donald G. Truhlar   : smd solvation model                     
  S Lehtola, MJT Oliveira, MAL Marques          : LibXC Library                           
  Liviu Ungur et al                             : ANISO software                          


 Your calculation uses the libint2 library for the computation of 2-el integrals
 For citations please refer to: http://libint.valeyev.net

 Your ORCA version has been built with support for libXC version: 7.0.0
 For citations please refer to: https://libxc.gitlab.io

 This ORCA versions uses:
   CBLAS   interface :  Fast vector & matrix operations
   LAPACKE interface :  Fast linear algebra routines
   SCALAPACK package :  Parallel linear algebra routines
   Shared memory     :  Shared parallel matrices
   BLAS/LAPACK       :  OpenBLAS 0.3.29  USE64BITINT DYNAMIC_ARCH NO_AFFINITY SkylakeX SINGLE_THREADED
        Core in use  :  SkylakeX
   Copyright (c) 2011-2014, The OpenBLAS Project


  ***********************************
  * Starting time: Tue Aug  5 12:42:13 2025
  * Host name:     csed-0009
  * Process ID:    752269
  * Working dir.:  /gpfs/fs1/home/copan/proj/cyclopentene-oh-addition-project/calc/cyC5e1/run-wb97x-3c
  ***********************************



***************************************
The coordinates will be read from file: guess.xyz
***************************************


Your calculation utilizes the atom-pairwise dispersion correction
based on EEQ partial charges (D4)


================================================================================

cite the ECPs for C  [vDZP-ECP] as follows:
   B-Ne (ecp-2-mwb), Al-Ar (ecp-10-mwb), Ga-Kr (ecp-28-mwb), Y-Cd (ecp-28-mwb), In-Xe (ecp-46-mwb):
     A. Bergner, M. Dolg, W. Küchle, H. Stoll, and H. Preuß, Mol. Phys. 80, 1431 (1993)., T. Leininger, A. Berning, A. Nicklass, H. Stoll, H.-J. Werner, and H.-J.Flad, Chem. Phys. 217, 19 (1997).
   Na-Mg, K-Ca, Rb-Sr, Cs-Ba (CRENBL):
     L. Fernandez Pacios and P. A. Christiansen, J. Chem. Phys. 82, 2664 (1985)., M. M. Hurley, L. F. Pacios, P. A. Christiansen, R. B. Ross, and W. C. Ermler, J. Chem. Phys. 84, 6840 (1986)., L. A. LaJohn, P. A. Christiansen, R. B. Ross, T. Atashroo, and W. C. Ermler, J. Chem. Phys. 87, 2812 (1987)., R. B. Ross, J. M. Powers, T. Atashroo, W. C. Ermler, L. A. LaJohn, and P. A. Christiansen, J. Chem. Phys. 93, 6654 (1990). 
   Sc-Zn (ecp-10-mdf):
     M. Dolg, U. Wedig, H. Stoll, and H. Preuss, J. Chem. Phys. 86, 866 (1986). 
   Y-Cd (ecp-28-mwb), Hf-Hg (ecp-60-mwb):
     D. Andrae, U. Häußermann, M. Dolg, H. Stoll, and H. Preuß, Theor. Chim. Acta 77, 123 (1990). 
   La (ecp-46-mwb):
     M. Dolg, H. Stoll, and H. Preuss, J. Chem. Phys. 90, 1730 (1989)., M. Dolg, H. Stoll, and H. Preuss, Theor. Chim. Acta 85, 441 (1993).
   Ce-Lu (SBKJC-ecp):
     T. R. Cundari and W. J. Stevens, J. Chem. Phys. 98, 5555 (1993).
   Tl-Rn (ecp-78-mwb):
     W. Küchle, M. Dolg, H. Stoll, and H. Preuss, Mol. Phys. 74, 1245 (1991).

ECP parameters for C  [vDZP-ECP] have been obtained from:
MM, AH, SG, J. Chem. Phys. 158, 014103 (2023), 10.1063/5.0133026

----- Orbital basis set information -----
Your calculation utilizes the basis: vDZP
   Marcel Mueller, Andreas Hansen, Stefan Grimme 
   J. Chem. Phys. 158, 014103 (2023). DOI: 10.1063/5.0133026

----- AuxJ basis set information -----
Your calculation utilizes the auxiliary basis: def2/J
   H-Rn: F. Weigend, Phys. Chem. Chem. Phys. 8, 1057 (2006).
   Fr-Lr: K. Eichkorn, F. Weigend, O. Treutler, R. Ahlrichs; Theor. Chem. Acc. 97, 119 (1997).

================================================================================
                                        WARNINGS
                       Please study these warnings very carefully!
================================================================================

WARNING: Frozen-Core approximation turned on, but there are no core electrons.
  ===> : Turning off frozen-core approximation


WARNING: Geometry Optimization
  ===> : Switching off AutoStart
         For restart on a previous wavefunction, please use MOREAD

================================================================================
                                       INPUT FILE
================================================================================
NAME = opt.inp
|  1> ! wB97X-3c
|  2> ! OPT
|  3> * xyzfile 0 1 guess.xyz
|  4> 
|  5>                          ****END OF INPUT****
================================================================================

                       *****************************
                       * Geometry Optimization Run *
                       *****************************

Geometry optimization settings:
Update method            Update   .... BFGS
Choice of coordinates    CoordSys .... (2022) Redundant Internals
Initial Hessian          InHess   .... Almloef's Model
Max. no of cycles        MaxIter  .... 50

Convergence Tolerances:
Energy Change            TolE     ....  5.0000e-06 Eh
Max. Gradient            TolMAXG  ....  3.0000e-04 Eh/bohr
RMS Gradient             TolRMSG  ....  1.0000e-04 Eh/bohr
Max. Displacement        TolMAXD  ....  4.0000e-03 bohr
RMS Displacement         TolRMSD  ....  2.0000e-03 bohr
Strict Convergence                .... False

------------------------------------------------------------------------------
                        ORCA OPTIMIZATION COORDINATE SETUP
------------------------------------------------------------------------------

The optimization will be done in redundant internal coordinates (2022)
Making redundant internal coordinates   ...  (2022 redundants) done
Evaluating the initial hessian          ...  (Almloef) done
Evaluating the coordinates              ...  done
Calculating the B-matrix                .... done
Calculating the G-matrix                .... done
The number of degrees of freedom        ....   63

    -----------------------------------------------------------------
                    Redundant Internal Coordinates


    -----------------------------------------------------------------
         Definition                    Initial Value    Approx d2E/dq
    -----------------------------------------------------------------
      1. B(C   1,C   0)                  1.5340         0.368114   
      2. B(C   2,C   1)                  1.5343         0.367682   
      3. B(C   3,C   2)                  1.5018         0.414338   
      4. B(C   4,C   3)                  1.3274         0.786363   
      5. B(C   4,C   0)                  1.5010         0.415630   
      6. B(H   5,C   0)                  1.0932         0.355907   
      7. B(H   6,C   0)                  1.0898         0.360321   
      8. B(H   7,C   1)                  1.0882         0.362496   
      9. B(H   8,C   1)                  1.0901         0.359921   
     10. B(H   9,C   2)                  1.0901         0.359940   
     11. B(H  10,C   2)                  1.0932         0.355839   
     12. B(H  11,C   3)                  1.0823         0.370365   
     13. B(H  12,C   4)                  1.0824         0.370295   
     14. A(C   1,C   0,H   6)          112.5419         0.323568   
     15. A(H   5,C   0,H   6)          106.7068         0.290333   
     16. A(C   1,C   0,H   5)          112.0516         0.322915   
     17. A(C   1,C   0,C   4)          103.0482         0.369121   
     18. A(C   4,C   0,H   5)          109.6794         0.329432   
     19. A(C   4,C   0,H   6)          112.8939         0.330103   
     20. A(C   2,C   1,H   8)          109.4196         0.323447   
     21. A(C   2,C   1,H   7)          112.6755         0.323826   
     22. A(C   0,C   1,H   7)          112.7420         0.323888   
     23. A(C   0,C   1,C   2)          105.5839         0.361456   
     24. A(H   7,C   1,H   8)          107.1988         0.291120   
     25. A(C   0,C   1,H   8)          109.1772         0.323509   
     26. A(C   1,C   2,C   3)          103.0517         0.368849   
     27. A(H   9,C   2,H  10)          106.5373         0.290276   
     28. A(C   1,C   2,H  10)          111.9766         0.322843   
     29. A(C   3,C   2,H   9)          113.0788         0.329876   
     30. A(C   1,C   2,H   9)          112.6482         0.323450   
     31. A(C   3,C   2,H  10)          109.6360         0.329252   
     32. A(C   4,C   3,H  11)          124.7625         0.369274   
     33. A(C   2,C   3,H  11)          123.3754         0.331437   
     34. A(C   2,C   3,C   4)          111.7614         0.421391   
     35. A(C   3,C   4,H  12)          124.8186         0.369262   
     36. A(C   0,C   4,H  12)          123.2096         0.331598   
     37. A(C   0,C   4,C   3)          111.8892         0.421626   
     38. D(C   2,C   1,C   0,C   4)    -20.5007         0.010839   
     39. D(C   2,C   1,C   0,H   5)     97.3288         0.010839   
     40. D(H   7,C   1,C   0,H   5)    -26.0979         0.010839   
     41. D(H   7,C   1,C   0,H   6)     94.1641         0.010839   
     42. D(H   7,C   1,C   0,C   4)   -143.9274         0.010839   
     43. D(C   2,C   1,C   0,H   6)   -142.4092         0.010839   
     44. D(C   3,C   2,C   1,C   0)     20.5933         0.010816   
     45. D(H   9,C   2,C   1,H   8)     25.4020         0.010816   
     46. D(H   9,C   2,C   1,H   7)    -93.7470         0.010816   
     47. D(H   9,C   2,C   1,C   0)    142.7842         0.010816   
     48. D(C   3,C   2,C   1,H   8)    -96.7888         0.010816   
     49. D(C   3,C   2,C   1,H   7)    144.0622         0.010816   
     50. D(C   4,C   3,C   2,H  10)    106.0322         0.012705   
     51. D(C   4,C   3,C   2,H   9)   -135.2475         0.012705   
     52. D(C   4,C   3,C   2,C   1)    -13.3467         0.012705   
     53. D(H  11,C   3,C   2,H   9)     48.2471         0.012705   
     54. D(H  11,C   3,C   2,C   1)    170.1479         0.012705   
     55. D(H  12,C   4,C   3,H  11)     -0.1606         0.044521   
     56. D(H  12,C   4,C   3,C   2)   -176.6082         0.044521   
     57. D(C   0,C   4,C   3,H  11)    176.6177         0.044521   
     58. D(C   0,C   4,C   3,C   2)      0.1701         0.044521   
     59. D(H  12,C   4,C   0,H   5)     70.4402         0.012782   
     60. D(H  12,C   4,C   0,C   1)   -170.0756         0.012782   
     61. D(C   3,C   4,C   0,H   6)    134.7563         0.012782   
     62. D(C   3,C   4,C   0,H   5)   -106.3986         0.012782   
     63. D(C   3,C   4,C   0,C   1)     13.0856         0.012782   
    -----------------------------------------------------------------

Number of atoms                         .... 13
Number of degrees of freedom            .... 63


         *************************************************************
         *                GEOMETRY OPTIMIZATION CYCLE   1            *
         *************************************************************
---------------------------------
CARTESIAN COORDINATES (ANGSTROEM)
---------------------------------
  C      1.887066    1.416024   -0.006601
  C      0.664001    2.293339    0.289395
  C     -0.556688    1.414176   -0.012521
  C      0.002142    0.022015    0.058376
  C      1.329534    0.024011    0.059293
  H      2.294372    1.602636   -1.003766
  H      2.700328    1.580894    0.699910
  H      0.664002    3.220892   -0.279651
  H      0.664018    2.563154    1.345612
  H     -1.377291    1.581298    0.685364
  H     -0.956581    1.599011   -1.013068
  H     -0.613643   -0.868027    0.047792
  H      1.948904   -0.863637    0.052059

----------------------------
CARTESIAN COORDINATES (A.U.)
----------------------------
  NO LB      ZA    FRAG     MASS         X           Y           Z
   0 C     4.0000*   0    12.011    3.566038    2.675897   -0.012474
   1 C     4.0000*   0    12.011    1.254781    4.333783    0.546876
   2 C     4.0000*   0    12.011   -1.051987    2.672405   -0.023661
   3 C     4.0000*   0    12.011    0.004049    0.041602    0.110315
   4 C     4.0000*   0    12.011    2.512456    0.045374    0.112048
   5 H     1.0000    0     1.008    4.335735    3.028544   -1.896842
   6 H     1.0000    0     1.008    5.102880    2.987457    1.322639
   7 H     1.0000    0     1.008    1.254782    6.086605   -0.528464
   8 H     1.0000    0     1.008    1.254812    4.843658    2.542837
   9 H     1.0000    0     1.008   -2.602702    2.988219    1.295151
  10 H     1.0000    0     1.008   -1.807676    3.021692   -1.914422
  11 H     1.0000    0     1.008   -1.159616   -1.640334    0.090313
  12 H     1.0000    0     1.008    3.682895   -1.632038    0.098378
* core charge reduced due to ECP

--------------------------------
INTERNAL COORDINATES (ANGSTROEM)
--------------------------------
 C      0   0   0     0.000000000000     0.00000000     0.00000000
 C      1   0   0     1.534008640182     0.00000000     0.00000000
 C      2   1   0     1.534328008629   105.58390794     0.00000000
 C      3   2   1     1.501808862812   103.05172775    20.59331786
 C      4   3   2     1.327393756542   111.76144396   346.65329439
 H      1   2   3     1.093188299432   112.05158682    97.32881509
 H      1   2   3     1.089832615940   112.54190332   217.59082741
 H      2   1   3     1.088194743755   112.74199354   236.57328834
 H      2   1   3     1.090134990446   109.17720125   117.54543320
 H      3   2   1     1.090120654178   112.64818508   142.78415950
 H      3   2   1     1.093239885002   111.97663795   262.84844560
 H      4   3   2     1.082348692410   123.37538996   170.14788818
 H      5   4   3     1.082400136323   124.81864121   183.39177499

---------------------------
INTERNAL COORDINATES (A.U.)
---------------------------
 C      0   0   0     0.000000000000     0.00000000     0.00000000
 C      1   0   0     2.898856217013     0.00000000     0.00000000
 C      2   1   0     2.899459735914   105.58390794     0.00000000
 C      3   2   1     2.838007456211   103.05172775    20.59331786
 C      4   3   2     2.508410671740   111.76144396   346.65329439
 H      1   2   3     2.065826498734   112.05158682    97.32881509
 H      1   2   3     2.059485175941   112.54190332   217.59082741
 H      2   1   3     2.056390046069   112.74199354   236.57328834
 H      2   1   3     2.060056580947   109.17720125   117.54543320
 H      3   2   1     2.060029489328   112.64818508   142.78415950
 H      3   2   1     2.065923981333   111.97663795   262.84844560
 H      4   3   2     2.045342610062   123.37538996   170.14788818
 H      5   4   3     2.045439824970   124.81864121   183.39177499

---------------------
BASIS SET INFORMATION
---------------------
There are 2 groups of distinct atoms

 Group   1 Type C   : 6s6p2d contracted to 2s2p1d pattern {42/42/2}
 Group   2 Type H   : 8s2p contracted to 2s1p pattern {53/2}

Atom   0C    basis set group =>   1
Atom   1C    basis set group =>   1
Atom   2C    basis set group =>   1
Atom   3C    basis set group =>   1
Atom   4C    basis set group =>   1
Atom   5H    basis set group =>   2
Atom   6H    basis set group =>   2
Atom   7H    basis set group =>   2
Atom   8H    basis set group =>   2
Atom   9H    basis set group =>   2
Atom  10H    basis set group =>   2
Atom  11H    basis set group =>   2
Atom  12H    basis set group =>   2
---------------------------------
AUXILIARY/J BASIS SET INFORMATION
---------------------------------
There are 2 groups of distinct atoms

 Group   1 Type C   : 12s5p4d2f1g contracted to 6s4p3d1f1g pattern {711111/2111/211/2/1}
 Group   2 Type H   : 5s2p1d contracted to 3s1p1d pattern {311/2/1}

Atom   0C    basis set group =>   1
Atom   1C    basis set group =>   1
Atom   2C    basis set group =>   1
Atom   3C    basis set group =>   1
Atom   4C    basis set group =>   1
Atom   5H    basis set group =>   2
Atom   6H    basis set group =>   2
Atom   7H    basis set group =>   2
Atom   8H    basis set group =>   2
Atom   9H    basis set group =>   2
Atom  10H    basis set group =>   2
Atom  11H    basis set group =>   2
Atom  12H    basis set group =>   2
-------------------------
ECP PARAMETER INFORMATION
-------------------------

 Group 1, Type C  ECP vDZP-ECP (replacing 2 core electrons, lmax=3)

Atom   0C    ECP group =>   1
Atom   1C    ECP group =>   1
Atom   2C    ECP group =>   1
Atom   3C    ECP group =>   1
Atom   4C    ECP group =>   1

------------------------------------------------------------------------------
                             ORCA STARTUP CALCULATIONS
                           -- RI-GTO INTEGRALS CHOSEN --
------------------------------------------------------------------------------
------------------------------------------------------------------------------
                   ___                                                        
                  /   \      - P O W E R E D   B Y -                         
                 /     \                                                     
                 |  |  |   _    _      __       _____    __    __             
                 |  |  |  | |  | |    /  \     |  _  \  |  |  /  |          
                  \  \/   | |  | |   /    \    | | | |  |  | /  /          
                 / \  \   | |__| |  /  /\  \   | |_| |  |  |/  /          
                |  |  |   |  __  | /  /__\  \  |    /   |      \           
                |  |  |   | |  | | |   __   |  |    \   |  |\   \          
                \     /   | |  | | |  |  |  |  | |\  \  |  | \   \       
                 \___/    |_|  |_| |__|  |__|  |_| \__\ |__|  \__/        
                                                                              
                      - O R C A' S   B I G   F R I E N D -                    
                                      &                                       
                       - I N T E G R A L  F E E D E R -                       
                                                                              
 v1 FN, 2020, v2 2021, v3 2022-2024                                           
------------------------------------------------------------------------------


----------------------
SHARK INTEGRAL PACKAGE
----------------------

Number of atoms                             ...     13
Number of basis functions                   ...    105
Number of shells                            ...     49
Maximum angular momentum                    ...      2
Integral batch strategy                     ... SHARK/LIBINT Hybrid
RI-J (if used) integral strategy            ... SPLIT-RIJ (Revised 2003 algorithm where possible)
Printlevel                                  ...      1
Contraction scheme used                     ... SEGMENTED contraction
Prescreening option                         ... SCHWARTZ
   Thresh                                   ... 2.500e-11
   Tcut                                     ... 2.500e-12
   Tpresel                                  ... 2.500e-12 
Coulomb Range Separation                    ... NOT USED
Exchange Range Separation                   ... Long Range
   Mu parameter                             ... 3.000e-01
   Scaling (regular/separated)              ... 1.670e-01 8.330e-01
Robust (split-)RI terms used:
  metric    (central integrals)             ... YES
  density   (r.h.s.  integrals)             ... YES
  potential (l.h.s.  integrals)             ... YES
Multipole approximations                    ... NOT USED
Finite Nucleus Model                        ... NOT USED
CABS basis                                  ... NOT available
Auxiliary Coulomb fitting basis             ... AVAILABLE
   # of basis functions in Aux-J            ...    333
   # of shells in Aux-J                     ...    115
   Maximum angular momentum in Aux-J        ...      4
Auxiliary J/K fitting basis                 ... NOT available
Auxiliary Correlation fitting basis         ... NOT available
Auxiliary 'external' fitting basis          ... NOT available

Checking pre-screening integrals            ... done (  0.0 sec) Dimension = 49
   => SHARK Basis and OBASIS are compatible. Storing Pre-screening
Shell pair information
Shell pair cut-off parameter TPreSel        ...   2.5e-12
Total number of shell pairs                 ...      1225
Shell pairs after pre-screening             ...      1225
Total number of primitive shell pairs       ...     11512
Primitive shell pairs kept                  ...     10528
          la=0 lb=0:    351 shell pairs
          la=1 lb=0:    468 shell pairs
          la=1 lb=1:    171 shell pairs
          la=2 lb=0:    130 shell pairs
          la=2 lb=1:     90 shell pairs
          la=2 lb=2:     15 shell pairs

Checking whether 4 symmetric matrices of dimension 105 fit in memory
:Max Core in MB      =   4096.00
 MB in use           =      6.02
 MB left             =   4089.98
 MB needed           =      0.17
 Data fit in memory  = YES
Calculating RI/J V-Matrix + Cholesky decomp.... done (  0.0 sec)
Calculating Nuclear repulsion               ... done (  0.0 sec) ENN=     93.339824974226 Eh

Diagonalization of the overlap matrix:
Smallest eigenvalue                        ... 1.424e-03
Time for diagonalization                   ...    0.001 sec
Threshold for overlap eigenvalues          ... 1.000e-07
Number of eigenvalues below threshold      ... 0
Time for construction of square roots      ...    0.001 sec
Total time needed                          ...    0.002 sec

-------------------
DFT GRID GENERATION
-------------------

General Integration Accuracy     IntAcc      ... 4.388
Radial Grid Type                 RadialGrid  ... OptM3 with GC (2021)
Angular Grid (max. ang.)         AngularGrid ... 4 (Lebedev-302)
Angular grid pruning method      GridPruning ... 4 (adaptive)
Weight generation scheme         WeightScheme... mBecke (2022)
Basis function cutoff            BFCut       ... 1.0000e-11
Integration weight cutoff        WCut        ... 1.0000e-14
Partially contracted basis set               ... off
Rotationally invariant grid construction     ... off
Angular grids for H and He will be reduced by one unit

Total number of grid points                  ...    55830
Total number of batches                      ...      879
Average number of points per batch           ...       63
Average number of grid points per atom       ...     4295

--------------------
COSX GRID GENERATION
--------------------

GRIDX 1
-------
General Integration Accuracy     IntAcc      ... 3.816
Radial Grid Type                 RadialGrid  ... OptM3 with GC (2021)
Angular Grid (max. ang.)         AngularGrid ... 1 (Lebedev-50)
Angular grid pruning method      GridPruning ... 4 (adaptive)
Weight generation scheme         WeightScheme... mBecke (2022)
Basis function cutoff            BFCut       ... 1.0000e-11
Integration weight cutoff        WCut        ... 1.0000e-14
Partially contracted basis set               ... on
Rotationally invariant grid construction     ... off
Angular grids for H and He will be reduced by one unit

Total number of grid points                  ...     7205
Total number of batches                      ...       65
Average number of points per batch           ...      110
Average number of grid points per atom       ...      554
UseSFitting                                  ... on

GRIDX 2
-------
General Integration Accuracy     IntAcc      ... 4.020
Radial Grid Type                 RadialGrid  ... OptM3 with GC (2021)
Angular Grid (max. ang.)         AngularGrid ... 2 (Lebedev-110)
Angular grid pruning method      GridPruning ... 4 (adaptive)
Weight generation scheme         WeightScheme... mBecke (2022)
Basis function cutoff            BFCut       ... 1.0000e-11
Integration weight cutoff        WCut        ... 1.0000e-14
Partially contracted basis set               ... on
Rotationally invariant grid construction     ... off
Angular grids for H and He will be reduced by one unit

Total number of grid points                  ...    15181
Total number of batches                      ...      128
Average number of points per batch           ...      118
Average number of grid points per atom       ...     1168
UseSFitting                                  ... on

GRIDX 3
-------
General Integration Accuracy     IntAcc      ... 4.338
Radial Grid Type                 RadialGrid  ... OptM3 with GC (2021)
Angular Grid (max. ang.)         AngularGrid ... 3 (Lebedev-194)
Angular grid pruning method      GridPruning ... 4 (adaptive)
Weight generation scheme         WeightScheme... mBecke (2022)
Basis function cutoff            BFCut       ... 1.0000e-11
Integration weight cutoff        WCut        ... 1.0000e-14
Partially contracted basis set               ... on
Rotationally invariant grid construction     ... off
Angular grids for H and He will be reduced by one unit

Total number of grid points                  ...    33191
Total number of batches                      ...      267
Average number of points per batch           ...      124
Average number of grid points per atom       ...     2553
UseSFitting                                  ... on
Grids setup in   0.7 sec
Initializing property integral containers    ... done (  0.0 sec)

SHARK setup successfully completed in   0.9 seconds

Maximum memory used throughout the entire STARTUP-calculation: 25.2 MB
-------------------------------------------------------------------------------
                                 ORCA GUESS
                   Start orbitals & Density for SCF / CASSCF
-------------------------------------------------------------------------------

------------
SCF SETTINGS
------------
Hamiltonian:
 Density Functional     Method          .... DFT(GTOs)
 Exchange Functional    Exchange        .... WB97X-V
 Correlation Functional Correlation     .... WB97X-V
 Gradients option       PostSCFGGA      .... off
 Hybrid DFT is turned on
   Fraction HF Exchange ScalHFX         ....  0.167000
   Scaling of DF-GGA-X  ScalDFX         ....  0.000000
   Scaling of DF-GGA-C  ScalDFC         ....  1.000000
   Scaling of DF-LDA-C  ScalLDAC        ....  1.000000
   Perturbative correction              ....  0.000000
 Long-range corrected/Screened/Range-Separated Hybrid DFT is turned on
   Amount of maximum screened exact exchange              ....  0.833000
   Range separation parameter mu (erf(mu*r12)/r12)        ....  0.300000
   NL short-range parameter             ....  6.000000
   NL long-range parameter              ....  0.010000
 RI-approximation to the Coulomb term is turned on
   Number of AuxJ basis functions       .... 333
   RIJ-COSX (HFX calculated with COS-X)).... on


General Settings:
 Integral files         IntName         .... opt
 Hartree-Fock type      HFTyp           .... RHF
 Total Charge           Charge          ....    0
 Multiplicity           Mult            ....    1
 Number of Electrons    NEL             ....   28
 Basis Dimension        Dim             ....  105
 Nuclear Repulsion      ENuc            ....     93.3398249742 Eh

Convergence Acceleration:
 AO-DIIS                CNVDIIS         .... on
   Start iteration      DIISMaxIt       ....    12
   Startup error        DIISStart       ....  0.200000
   # of expansion vecs  DIISMaxEq       ....     5
   Bias factor          DIISBfac        ....   1.050
   Max. coefficient     DIISMaxC        ....  10.000
 MO-DIIS                CNVKDIIS        .... off
 Trust-Rad. Augm. Hess. CNVTRAH         .... auto
   Auto Start mean grad. ratio tolernc. ....  1.125000
   Auto Start start iteration           ....    50
   Auto Start num. interpolation iter.  ....    10
   Max. Number of Micro iterations      ....    24
   Max. Number of Macro iterations      .... Maxiter - #DIIS iter
   Number of Davidson start vectors     ....     2
   Converg. threshold    (grad. norm)   ....   1.000e-05
   Grad. Scal. Fac. for Micro threshold ....   0.100
   Minimum threshold for Micro iter.    ....   1.000e-02
   NR start threshold (gradient norm)   ....   1.000e-04
   Initial trust radius                 ....   0.400
   Minimum AH scaling param. (alpha)    ....   1.000
   Maximum AH scaling param. (alpha)    .... 1000.000
   Quad. conv. algorithm                .... NR
   White noise on init. David. guess    .... on
   Maximum white noise                  ....   0.010
   Pseudo random numbers                .... off
   Inactive MOs                         .... canonical
   Orbital update algorithm             .... Taylor
   Preconditioner                       .... Diag
   Full preconditioner red. dimension   ....   250
 SOSCF                 CNVSOSCF           .... on
   Start iteration     SOSCFMaxIt         ....   150
   Startup grad/error  SOSCFStart         ....  0.003300
   Hessian update      SOSCFHessUp        .... L-BFGS
   Autom. constraints  SOSCFAutoConstrain .... off
 Level Shifting         CNVShift        .... on
   Level shift para.    LevelShift      ....    0.2500
   Turn off err/grad.   ShiftErr        ....    0.0010
 Zerner damping         CNVZerner       .... off
 Static damping         CNVDamp         .... on
   Fraction old density DampFac         ....    0.7000
   Max. Damping (<1)    DampMax         ....    0.9800
   Min. Damping (>=0)   DampMin         ....    0.0000
   Turn off err/grad.   DampErr         ....    0.1000

SCF Procedure:
 Maximum # iterations   MaxIter         ....   125
 SCF integral mode      SCFMode         .... Direct
   Integral package                     .... SHARK and LIBINT hybrid scheme
 Reset frequency        DirectResetFreq ....    20
 Integral Threshold     Thresh          ....  2.500e-11 Eh
 Primitive CutOff       TCut            ....  2.500e-12 Eh

Convergence Tolerance:
 Convergence Check Mode ConvCheckMode   .... Total+1el-Energy
 Convergence forced     ConvForced      .... 0
 Energy Change          TolE            ....  1.000e-08 Eh
 1-El. energy change                    ....  1.000e-05 Eh
 Orbital Gradient       TolG            ....  1.000e-05
 Orbital Rotation angle TolX            ....  1.000e-05
 DIIS Error             TolErr          ....  5.000e-07

------------------------------
INITIAL GUESS: MODEL POTENTIAL
------------------------------
Loading Hartree-Fock densities                     ... done
Atomic calculation to generate a density for atom 0 (C  with ECP)
  Multiplicity assumed   :    1
  Atomic configuration   : 1s2 2s2 2p2 
  Number of open shells  : 1
  Command: /software/software/custom-built/orca/orca_6_1_0_linux_x86-64_shared_openmpi418_avx2/orca opt_atom6.inp "" > opt_atom6.out
Returned from the atomic calculation with res=0
Calculating cut-offs                               ... done
Initializing the effective Hamiltonian             ... done
Setting up the integral package (SHARK)            ... done
Starting the Coulomb interaction                   ... done (   0.1 sec)
Making the grid                                    ... done (   0.1 sec)
Mapping shells                                     ... done
Starting the XC term evaluation                    ... done (   0.1 sec)
  promolecular density results
     # of electrons  =     37.993931177
     EX              =    -18.467988683
     EC              =     -1.506010952
     EX+EC           =    -19.973999636
Transforming the Hamiltonian                       ... done (   0.0 sec)
Diagonalizing the Hamiltonian                      ... done (   0.0 sec)
Back transforming the eigenvectors                 ... done (   0.0 sec)
Now organizing SCF variables                       ... done
                      ------------------
                      INITIAL GUESS DONE (   0.7 sec)
                      ------------------
             **** ENERGY FILE WAS UPDATED (opt.en.tmp) ****
Finished Guess after   0.8 sec
Maximum memory used throughout the entire GUESS-calculation: 11.2 MB

-------------------------------------------------------------------------------------------
                                      ORCA LEAN-SCF
                              memory conserving SCF solver
-------------------------------------------------------------------------------------------

----------------------------------------D-I-I-S--------------------------------------------
Iteration    Energy (Eh)           Delta-E    RMSDP     MaxDP     DIISErr   Damp  Time(sec)
-------------------------------------------------------------------------------------------
               ***  Starting incremental Fock matrix formation  ***
    1    -33.0306057278805838     0.00e+00  5.15e-03  7.17e-02  1.84e-01  0.700   7.1
    2    -33.1319845484461553    -1.01e-01  3.82e-03  5.25e-02  1.10e-01  0.700   3.6
                               ***Turning on AO-DIIS***
    3    -33.1836055273229533    -5.16e-02  1.89e-03  2.39e-02  5.61e-02  0.700   3.6
    4    -33.2139342298385856    -3.03e-02  3.86e-03  4.67e-02  3.54e-02  0.000   3.5
                              *** Initializing SOSCF ***
---------------------------------------S-O-S-C-F--------------------------------------
Iteration    Energy (Eh)           Delta-E    RMSDP     MaxDP     MaxGrad    Time(sec)
--------------------------------------------------------------------------------------
    5    -33.2778653601702672    -6.39e-02  3.11e-04  2.80e-03  2.86e-03     3.6
               *** Restarting incremental Fock matrix formation ***
    6    -33.2780304041708064    -1.65e-04  1.60e-04  1.51e-03  9.25e-04     7.1
    7    -33.2780465572585911    -1.62e-05  7.42e-05  8.56e-04  3.66e-04     6.3
    8    -33.2780493284791135    -2.77e-06  1.88e-05  1.82e-04  9.60e-05     6.2
    9    -33.2780495400697163    -2.12e-07  2.67e-06  2.99e-05  8.39e-06     5.7
   10    -33.2780495403039396    -2.34e-10  6.81e-07  8.71e-06  4.16e-06     5.0
                 **** Energy Check signals convergence ****

               *****************************************************
               *                     SUCCESS                       *
               *           SCF CONVERGED AFTER  10 CYCLES          *
               *****************************************************

Recomputing exchange energy using gridx3       ... done (   13.699 sec)
Old exchange energy                            :     -5.305503022 Eh
New exchange energy                            :     -5.305528344 Eh
Exchange energy change after final integration :     -0.000025322 Eh
Total energy after final integration           :    -33.278074863 Eh
             **** ENERGY FILE WAS UPDATED (opt.en.tmp) ****

----------------
TOTAL SCF ENERGY
----------------

Total Energy       :        -33.27807486274512 Eh            -905.54245 eV

Components:
Nuclear Repulsion  :         93.33982497422619 Eh            2539.90576 eV
Electronic Energy  :       -126.61787451493979 Eh           -3445.44753 eV
One Electron Energy:       -232.83634749976045 Eh           -6335.79912 eV
Two Electron Energy:        106.21847298482066 Eh            2890.35159 eV

Virial components:
Potential Energy   :        -59.45719596347952 Eh           -1617.91256 eV
Kinetic Energy     :         26.17912110073440 Eh             712.37010 eV
Virial Ratio       :          2.27116852909976

DFT components:
N(Alpha)           :       14.000005394190 electrons
N(Beta)            :       14.000005394190 electrons
N(Total)           :       28.000010788380 electrons
E(X)               :       -5.398654051998 Eh       
E(C)               :       -1.037103753222 Eh       
E(XC)              :       -6.435757805220 Eh       

---------------
SCF CONVERGENCE
---------------

  Last Energy change         ...    2.3422e-10  Tolerance :   1.0000e-08
  Last MAX-Density change    ...    8.7067e-06  Tolerance :   1.0000e-07
  Last RMS-Density change    ...    6.8084e-07  Tolerance :   5.0000e-09
  Last DIIS Error            ...    2.8647e-03  Tolerance :   5.0000e-07
  Last Orbital Gradient      ...    4.1613e-06  Tolerance :   1.0000e-05
  Last Orbital Rotation      ...    9.1309e-06  Tolerance :   1.0000e-05


----------------
ORBITAL ENERGIES
----------------

  NO   OCC          E(Eh)            E(eV) 
   0   2.0000      -0.985307       -26.8116 
   1   2.0000      -0.842994       -22.9390 
   2   2.0000      -0.840785       -22.8789 
   3   2.0000      -0.699191       -19.0260 
   4   2.0000      -0.649328       -17.6691 
   5   2.0000      -0.617165       -16.7939 
   6   2.0000      -0.586437       -15.9578 
   7   2.0000      -0.509014       -13.8510 
   8   2.0000      -0.485453       -13.2098 
   9   2.0000      -0.456420       -12.4198 
  10   2.0000      -0.452733       -12.3195 
  11   2.0000      -0.447667       -12.1816 
  12   2.0000      -0.445721       -12.1287 
  13   2.0000      -0.338476        -9.2104 
  14   0.0000       0.089800         2.4436 
  15   0.0000       0.107039         2.9127 
  16   0.0000       0.111608         3.0370 
  17   0.0000       0.114325         3.1109 
  18   0.0000       0.116002         3.1566 
  19   0.0000       0.143898         3.9157 
  20   0.0000       0.147673         4.0184 
  21   0.0000       0.162843         4.4312 
  22   0.0000       0.180692         4.9169 
  23   0.0000       0.267554         7.2805 
  24   0.0000       0.288984         7.8636 
*Only the first 10 virtual orbitals were printed.

                    ********************************
                    * MULLIKEN POPULATION ANALYSIS *
                    ********************************

-----------------------
MULLIKEN ATOMIC CHARGES
-----------------------
   0 C :   -0.069318
   1 C :   -0.050712
   2 C :   -0.069643
   3 C :   -0.033056
   4 C :   -0.032750
   5 H :    0.038780
   6 H :    0.040582
   7 H :    0.035084
   8 H :    0.031716
   9 H :    0.040621
  10 H :    0.038752
  11 H :    0.015009
  12 H :    0.014936
Sum of atomic charges:    0.0000000

--------------------------------
MULLIKEN REDUCED ORBITAL CHARGES
--------------------------------
  0 C s       :     0.981051  s :     0.981051
      pz      :     1.052703  p :     2.987213
      px      :     0.989984
      py      :     0.944526
      dz2     :     0.016059  d :     0.101054
      dxz     :     0.025721
      dyz     :     0.014765
      dx2y2   :     0.023657
      dxy     :     0.020853

  1 C s       :     0.990555  s :     0.990555
      pz      :     1.043555  p :     2.963609
      px      :     0.929600
      py      :     0.990454
      dz2     :     0.020601  d :     0.096548
      dxz     :     0.013088
      dyz     :     0.017031
      dx2y2   :     0.024384
      dxy     :     0.021444

  2 C s       :     0.981612  s :     0.981612
      pz      :     1.052918  p :     2.987011
      px      :     0.990094
      py      :     0.943999
      dz2     :     0.016273  d :     0.101021
      dxz     :     0.025416
      dyz     :     0.014755
      dx2y2   :     0.023729
      dxy     :     0.020848

  3 C s       :     1.045232  s :     1.045232
      pz      :     0.965201  p :     2.892572
      px      :     0.984783
      py      :     0.942588
      dz2     :     0.004772  d :     0.095253
      dxz     :     0.021555
      dyz     :     0.007764
      dx2y2   :     0.024399
      dxy     :     0.036763

  4 C s       :     1.044921  s :     1.044921
      pz      :     0.964975  p :     2.892455
      px      :     0.984546
      py      :     0.942934
      dz2     :     0.004754  d :     0.095374
      dxz     :     0.021579
      dyz     :     0.007783
      dx2y2   :     0.024371
      dxy     :     0.036888

  5 H s       :     0.917172  s :     0.917172
      pz      :     0.021093  p :     0.044048
      px      :     0.011799
      py      :     0.011156

  6 H s       :     0.915114  s :     0.915114
      pz      :     0.015706  p :     0.044304
      px      :     0.017549
      py      :     0.011049

  7 H s       :     0.920402  s :     0.920402
      pz      :     0.013784  p :     0.044514
      px      :     0.011041
      py      :     0.019689

  8 H s       :     0.925215  s :     0.925215
      pz      :     0.022120  p :     0.043069
      px      :     0.010561
      py      :     0.010388

  9 H s       :     0.915098  s :     0.915098
      pz      :     0.015577  p :     0.044281
      px      :     0.017672
      py      :     0.011032

 10 H s       :     0.917226  s :     0.917226
      pz      :     0.021157  p :     0.044022
      px      :     0.011726
      py      :     0.011139

 11 H s       :     0.935770  s :     0.935770
      pz      :     0.013729  p :     0.049221
      px      :     0.015051
      py      :     0.020440

 12 H s       :     0.935865  s :     0.935865
      pz      :     0.013712  p :     0.049199
      px      :     0.015103
      py      :     0.020385



                     *******************************
                     * LOEWDIN POPULATION ANALYSIS *
                     *******************************

----------------------
LOEWDIN ATOMIC CHARGES
----------------------
   0 C :   -0.082509
   1 C :   -0.065925
   2 C :   -0.082508
   3 C :   -0.044891
   4 C :   -0.045033
   5 H :    0.043204
   6 H :    0.042445
   7 H :    0.038742
   8 H :    0.043362
   9 H :    0.042358
  10 H :    0.043209
  11 H :    0.033758
  12 H :    0.033789

-------------------------------
LOEWDIN REDUCED ORBITAL CHARGES
-------------------------------
  0 C s       :     0.758223  s :     0.758223
      pz      :     1.062157  p :     3.005259
      px      :     0.993975
      py      :     0.949126
      dz2     :     0.050669  d :     0.319028
      dxz     :     0.083493
      dyz     :     0.043995
      dx2y2   :     0.074083
      dxy     :     0.066787

  1 C s       :     0.760047  s :     0.760047
      pz      :     1.062018  p :     2.994615
      px      :     0.930977
      py      :     1.001620
      dz2     :     0.066906  d :     0.311263
      dxz     :     0.042907
      dyz     :     0.056946
      dx2y2   :     0.079127
      dxy     :     0.065378

  2 C s       :     0.758484  s :     0.758484
      pz      :     1.062160  p :     3.005184
      px      :     0.994226
      py      :     0.948798
      dz2     :     0.051351  d :     0.318841
      dxz     :     0.082452
      dyz     :     0.043958
      dx2y2   :     0.074308
      dxy     :     0.066771

  3 C s       :     0.810314  s :     0.810314
      pz      :     0.881035  p :     2.927727
      px      :     1.051649
      py      :     0.995043
      dz2     :     0.021292  d :     0.306850
      dxz     :     0.050594
      dyz     :     0.027278
      dx2y2   :     0.081982
      dxy     :     0.125704

  4 C s       :     0.810086  s :     0.810086
      pz      :     0.880710  p :     2.927560
      px      :     1.051828
      py      :     0.995022
      dz2     :     0.021266  d :     0.307388
      dxz     :     0.050693
      dyz     :     0.027387
      dx2y2   :     0.081922
      dxy     :     0.126119

  5 H s       :     0.802430  s :     0.802430
      pz      :     0.065640  p :     0.154365
      px      :     0.045592
      py      :     0.043133

  6 H s       :     0.804439  s :     0.804439
      pz      :     0.054025  p :     0.153116
      px      :     0.056583
      py      :     0.042508

  7 H s       :     0.807412  s :     0.807412
      pz      :     0.050073  p :     0.153846
      px      :     0.042297
      py      :     0.061476

  8 H s       :     0.803493  s :     0.803493
      pz      :     0.068374  p :     0.153145
      px      :     0.041209
      py      :     0.043561

  9 H s       :     0.804567  s :     0.804567
      pz      :     0.053839  p :     0.153075
      px      :     0.056810
      py      :     0.042426

 10 H s       :     0.802356  s :     0.802356
      pz      :     0.065864  p :     0.154434
      px      :     0.045470
      py      :     0.043101

 11 H s       :     0.813249  s :     0.813249
      pz      :     0.044519  p :     0.152993
      px      :     0.046537
      py      :     0.061937

 12 H s       :     0.813281  s :     0.813281
      pz      :     0.044472  p :     0.152930
      px      :     0.046629
      py      :     0.061829



                      *****************************
                      * MAYER POPULATION ANALYSIS *
                      *****************************

  NA   - Mulliken gross atomic population
  ZA   - Total nuclear charge
  QA   - Mulliken gross atomic charge
  VA   - Mayer's total valence
  BVA  - Mayer's bonded valence
  FA   - Mayer's free valence

  ATOM       NA         ZA         QA         VA         BVA        FA
  0 C      4.0693     4.0000    -0.0693     4.0170     4.0170     0.0000
  1 C      4.0507     4.0000    -0.0507     3.9807     3.9807    -0.0000
  2 C      4.0696     4.0000    -0.0696     4.0170     4.0170     0.0000
  3 C      4.0331     4.0000    -0.0331     4.0170     4.0170     0.0000
  4 C      4.0327     4.0000    -0.0327     4.0174     4.0174     0.0000
  5 H      0.9612     1.0000     0.0388     1.0249     1.0249    -0.0000
  6 H      0.9594     1.0000     0.0406     1.0193     1.0193     0.0000
  7 H      0.9649     1.0000     0.0351     1.0285     1.0285     0.0000
  8 H      0.9683     1.0000     0.0317     1.0226     1.0226     0.0000
  9 H      0.9594     1.0000     0.0406     1.0193     1.0193     0.0000
 10 H      0.9612     1.0000     0.0388     1.0247     1.0247     0.0000
 11 H      0.9850     1.0000     0.0150     1.0496     1.0496    -0.0000
 12 H      0.9851     1.0000     0.0149     1.0495     1.0495     0.0000

  Mayer bond orders larger than 0.100000
B(  0-C ,  1-C ) :   0.9820 B(  0-C ,  4-C ) :   1.0248 B(  0-C ,  5-H ) :   0.9830 
B(  0-C ,  6-H ) :   0.9937 B(  1-C ,  2-C ) :   0.9824 B(  1-C ,  7-H ) :   1.0040 
B(  1-C ,  8-H ) :   0.9986 B(  2-C ,  3-C ) :   1.0246 B(  2-C ,  9-H ) :   0.9937 
B(  2-C , 10-H ) :   0.9830 B(  3-C ,  4-C ) :   1.9150 B(  3-C , 11-H ) :   1.0021 
B(  4-C , 12-H ) :   1.0022 

-------
TIMINGS
-------

Total SCF time: 0 days 0 hours 1 min 10 sec 

Total time                  ....      70.109 sec
Sum of individual times     ....      65.586 sec  ( 93.5%)

SCF preparation             ....       0.071 sec  (  0.1%)
Fock matrix formation       ....      65.422 sec  ( 93.3%)
  Startup                   ....       0.001 sec  (  0.0% of F)
  Split-RI-J                ....       2.247 sec  (  3.4% of F)
  Chain of spheres X        ....      62.707 sec  ( 95.8% of F)
  XC integration            ....       4.847 sec  (  7.4% of F)
    XC Preparation          ....       0.000 sec  (  0.0% of XC)
    Basis function eval.    ....       1.971 sec  ( 40.7% of XC)
    Density eval.           ....       0.634 sec  ( 13.1% of XC)
    XC-Functional eval.     ....       1.180 sec  ( 24.3% of XC)
    XC-Potential eval.      ....       0.965 sec  ( 19.9% of XC)
Diagonalization             ....       0.000 sec  (  0.0%)
Density matrix formation    ....       0.031 sec  (  0.0%)
Total Energy calculation    ....       0.003 sec  (  0.0%)
Population analysis         ....       0.004 sec  (  0.0%)
Orbital Transformation      ....       0.011 sec  (  0.0%)
Orbital Orthonormalization  ....       0.000 sec  (  0.0%)
DIIS solution               ....       0.024 sec  (  0.0%)
SOSCF solution              ....       0.020 sec  (  0.0%)
Finished LeanSCF after  70.1 sec

Maximum memory used throughout the entire LEANSCF-calculation: 17.3 MB


-------------------------------------------------------------------------------
                          DFT DISPERSION CORRECTION                            
                                                                               
                                DFTD4 V3.4.0                                   
-------------------------------------------------------------------------------
The wB97X-3c composite method is recognized
Using three-body term ABC
Active option DFTDOPT                   ...         5   

-------------------------   ----------------
Dispersion correction           -0.011758707
-------------------------   ----------------


-------------------------   --------------------
FINAL SINGLE POINT ENERGY       -33.289833569327
-------------------------   --------------------

------------------------------------------------------------------------------
                         ORCA SCF GRADIENT CALCULATION
------------------------------------------------------------------------------

Nuc. rep. gradient        (SHARK) ... done (  0.0 sec)
HCore & Overlap gradient  (SHARK) ... done (  0.1 sec)
ECP gradient              (SHARK) ... done (  0.3 sec)
Split-RIJ-J gradient      (SHARK) ... done (  1.0 sec)
done ( 31.2 sec)
XC gradient                       ... done (  1.8 sec)
Dispersion correction             ... done (  0.0 sec)

-------------------
DISPERSION GRADIENT
-------------------

   1   C   :    0.000394956    0.000102977   -0.000024182
   2   C   :   -0.000000246    0.000377599    0.000072661
   3   C   :   -0.000394955    0.000102387   -0.000026532
   4   C   :   -0.000226494   -0.000365892   -0.000012800
   5   C   :    0.000226879   -0.000365012   -0.000012100
   6   H   :    0.000131366    0.000034134   -0.000066709
   7   H   :    0.000137677    0.000030527    0.000034118
   8   H   :   -0.000000128    0.000151459   -0.000016386
   9   H   :   -0.000000072    0.000121986    0.000083988
  10   H   :   -0.000138212    0.000030514    0.000033320
  11   H   :   -0.000131048    0.000033916   -0.000067377
  12   H   :   -0.000072268   -0.000127434    0.000000934
  13   H   :    0.000072544   -0.000127162    0.000001064

Difference to translation invariance:
           :    0.0000000000   -0.0000000000   -0.0000000000

Difference to rotation invariance:
           :   -0.0000000000    0.0000000000   -0.0000000000

Norm of the Dispersion gradient    ...    0.0010140917
RMS gradient                       ...    0.0001623846
MAX gradient                       ...    0.0003949564

------------------
CARTESIAN GRADIENT
------------------

   1   C   :    0.000369737    0.000917091    0.000063236
   2   C   :    0.000025847    0.000153631    0.000527620
   3   C   :   -0.000152169    0.000968585   -0.000107228
   4   C   :   -0.003444762   -0.000046630    0.000371564
   5   C   :    0.003255857    0.000572543   -0.000028996
   6   H   :   -0.000167920   -0.000707193    0.000097059
   7   H   :   -0.000187400   -0.000171581   -0.000076728
   8   H   :   -0.000048095   -0.000270618    0.000045706
   9   H   :    0.000306961    0.000318036   -0.000047040
  10   H   :   -0.000172210   -0.000002379   -0.000255031
  11   H   :    0.000048875   -0.000674044    0.000169860
  12   H   :    0.000040845   -0.000590297   -0.000427084
  13   H   :    0.000124435   -0.000467143   -0.000332938

Difference to translation invariance:
           :    0.0000000000    0.0000000000   -0.0000000000

Difference to rotation invariance:
           :   -0.0000693741   -0.0000085396    0.0000011603

Norm of the Cartesian gradient     ...    0.0052472705
RMS gradient                       ...    0.0008402357
MAX gradient                       ...    0.0034447616

-------
TIMINGS
-------

Total SCF gradient time     ....       34.434 sec

Densities                   ....       0.000 sec  (  0.0%)
One electron gradient       ....       0.141 sec  (  0.4%)
RI-J Coulomb gradient       ....       1.013 sec  (  2.9%)
COSX gradient               ....      31.180 sec  ( 90.5%)
XC gradient                 ....       1.769 sec  (  5.1%)

Maximum memory used throughout the entire SCFGRAD-calculation: 31.9 MB
------------------------------------------------------------------------------
                         ORCA GEOMETRY RELAXATION STEP
------------------------------------------------------------------------------

Reading the OPT-File                    .... done
Getting information on internals        .... done
Copying old internal coords+grads       .... done
Making the new internal coordinates     .... (2022 redundants) done
Validating the new internal coordinates .... (2022 redundants) done
Calculating the B-matrix                .... done
Calculating the G,G- and P matrices     .... done
Transforming gradient to internals      .... done
Projecting the internal gradient        .... done
Number of atoms                         ....  13
Number of internal coordinates          ....  63
Current Energy                          ....   -33.289833569 Eh
Current gradient norm                   ....     0.005247270 Eh/bohr
Maximum allowed component of the step   ....  0.300
Current trust radius                    ....  0.300
Evaluating the initial hessian          ....  (Almloef) done
Projecting the Hessian                  .... done
Forming the augmented Hessian           .... done
Diagonalizing the augmented Hessian     .... done
Last element of RFO vector              ....  0.999678898
Lowest eigenvalues of augmented Hessian:
 -0.000043833  0.012639327  0.019733398  0.024299267  0.032075848
Length of the computed step             ....  0.025347860
The final length of the internal step   ....  0.025347860
Converting the step to Cartesian space:
 Initial RMS(Int)=    0.0031935302
Transforming coordinates:
 Iter   0:  RMS(Cart)=    0.0037983660 RMS(Int)=    0.0031943863
done
Storing new coordinates                 .... done

                                .--------------------.
          ----------------------|Geometry convergence|-------------------------
          Item                value                   Tolerance       Converged
          ---------------------------------------------------------------------
          RMS gradient        0.0004827112            0.0001000000      NO
          MAX gradient        0.0030072483            0.0003000000      NO
          RMS step            0.0031935302            0.0020000000      NO
          MAX step            0.0101391652            0.0040000000      NO
          -------------------------------------------------------------------------
          ........................................................
          Max(Bonds)      0.0021      Max(Angles)    0.20
          Max(Dihed)        0.58      Max(Improp)    0.00
          ---------------------------------------------------------------------

The optimization has not yet converged - more geometry cycles are needed


    ---------------------------------------------------------------------------
                         Redundant Internal Coordinates
                            (Angstroem and degrees)

        Definition                    Value    dE/dq     Step     New-Value
    ----------------------------------------------------------------------------
     1. B(C   1,C   0)                1.5340  0.000303 -0.0003    1.5337   
     2. B(C   2,C   1)                1.5343  0.000759 -0.0008    1.5335   
     3. B(C   3,C   2)                1.5018  0.000317 -0.0004    1.5014   
     4. B(C   4,C   3)                1.3274  0.003007 -0.0021    1.3253   
     5. B(C   4,C   0)                1.5010 -0.000130  0.0000    1.5010   
     6. B(H   5,C   0)                1.0932 -0.000272  0.0004    1.0936   
     7. B(H   6,C   0)                1.0898 -0.000215  0.0003    1.0901   
     8. B(H   7,C   1)                1.0882 -0.000256  0.0004    1.0886   
     9. B(H   8,C   1)                1.0901  0.000035 -0.0001    1.0901   
    10. B(H   9,C   2)                1.0901 -0.000034  0.0000    1.0902   
    11. B(H  10,C   2)                1.0932 -0.000288  0.0004    1.0937   
    12. B(H  11,C   3)                1.0823  0.000466 -0.0007    1.0817   
    13. B(H  12,C   4)                1.0824  0.000457 -0.0007    1.0817   
    14. A(C   1,C   0,H   6)          112.54  0.000065   -0.04    112.50   
    15. A(H   5,C   0,H   6)          106.71  0.000159   -0.05    106.66   
    16. A(C   1,C   0,H   5)          112.05  0.000181   -0.06    111.99   
    17. A(C   1,C   0,C   4)          103.05  0.000248   -0.03    103.01   
    18. A(C   4,C   0,H   5)          109.68 -0.000570    0.19    109.87   
    19. A(C   4,C   0,H   6)          112.89 -0.000109    0.01    112.90   
    20. A(C   2,C   1,H   8)          109.42  0.000655   -0.14    109.28   
    21. A(C   2,C   1,H   7)          112.68 -0.000250    0.07    112.74   
    22. A(C   0,C   1,H   7)          112.74 -0.000187    0.05    112.79   
    23. A(C   0,C   1,C   2)          105.58  0.000289   -0.01    105.58   
    24. A(H   7,C   1,H   8)          107.20 -0.000260    0.04    107.23   
    25. A(C   0,C   1,H   8)          109.18 -0.000214   -0.01    109.17   
    26. A(C   1,C   2,C   3)          103.05  0.000140   -0.02    103.03   
    27. A(H   9,C   2,H  10)          106.54  0.000120    0.04    106.57   
    28. A(C   1,C   2,H  10)          111.98  0.000446   -0.07    111.91   
    29. A(C   3,C   2,H   9)          113.08  0.000014   -0.05    113.03   
    30. A(C   1,C   2,H   9)          112.65  0.000215   -0.09    112.56   
    31. A(C   3,C   2,H  10)          109.64 -0.000968    0.20    109.84   
    32. A(C   4,C   3,H  11)          124.76 -0.000123    0.05    124.81   
    33. A(C   2,C   3,H  11)          123.38  0.000607   -0.07    123.30   
    34. A(C   2,C   3,C   4)          111.76 -0.000503    0.06    111.82   
    35. A(C   3,C   4,H  12)          124.82 -0.000079    0.04    124.86   
    36. A(C   0,C   4,H  12)          123.21  0.000224   -0.01    123.20   
    37. A(C   0,C   4,C   3)          111.89 -0.000151   -0.01    111.88   
    38. D(C   2,C   1,C   0,C   4)    -20.50 -0.000001   -0.05    -20.55   
    39. D(C   2,C   1,C   0,H   5)     97.33 -0.000444    0.12     97.45   
    40. D(H   7,C   1,C   0,H   5)    -26.10 -0.000217    0.01    -26.09   
    41. D(H   7,C   1,C   0,H   6)     94.16  0.000165   -0.13     94.04   
    42. D(H   7,C   1,C   0,C   4)   -143.93  0.000225   -0.16   -144.09   
    43. D(C   2,C   1,C   0,H   6)   -142.41 -0.000062   -0.02   -142.43   
    44. D(C   3,C   2,C   1,C   0)     20.59  0.000032   -0.01     20.58   
    45. D(H   9,C   2,C   1,H   8)     25.40  0.000023   -0.05     25.35   
    46. D(H   9,C   2,C   1,H   7)    -93.75  0.000067   -0.04    -93.79   
    47. D(H   9,C   2,C   1,C   0)    142.78  0.000254   -0.14    142.65   
    48. D(C   3,C   2,C   1,H   8)    -96.79 -0.000199    0.07    -96.72   
    49. D(C   3,C   2,C   1,H   7)    144.06 -0.000155    0.08    144.15   
    50. D(C   4,C   3,C   2,H  10)    106.03  0.000173    0.08    106.11   
    51. D(C   4,C   3,C   2,H   9)   -135.25 -0.000327    0.23   -135.02   
    52. D(C   4,C   3,C   2,C   1)    -13.35  0.000032    0.08    -13.27   
    53. D(H  11,C   3,C   2,H   9)     48.25  0.000011   -0.43     47.82   
    54. D(H  11,C   3,C   2,C   1)    170.15  0.000370   -0.58    169.57   
    55. D(H  12,C   4,C   3,H  11)     -0.16 -0.000128    0.12     -0.04   
    56. D(H  12,C   4,C   3,C   2)   -176.61  0.000186   -0.55   -177.15   
    57. D(C   0,C   4,C   3,H  11)    176.62 -0.000243    0.54    177.16   
    58. D(C   0,C   4,C   3,C   2)      0.17  0.000071   -0.12      0.05   
    59. D(H  12,C   4,C   0,H   5)     70.44 -0.000300    0.53     70.97   
    60. D(H  12,C   4,C   0,C   1)   -170.08 -0.000223    0.52   -169.55   
    61. D(C   3,C   4,C   0,H   6)    134.76  0.000080    0.04    134.80   
    62. D(C   3,C   4,C   0,H   5)   -106.40 -0.000176    0.11   -106.29   
    63. D(C   3,C   4,C   0,C   1)     13.09 -0.000099    0.11     13.19   
    ----------------------------------------------------------------------------

Geometry step timings:
Preparation and reading OPT file:      0.000 s ( 1.642 %)
Internal coordinates            :      0.000 s ( 2.884 %)
B/P matrices and projection     :      0.000 s (20.009 %)
Hessian update/contruction      :      0.000 s (21.118 %)
Making the step                 :      0.000 s (20.098 %)
Converting the step to Cartesian:      0.000 s ( 3.416 %)
Storing new data                :      0.000 s ( 2.529 %)
Checking convergence            :      0.000 s ( 2.884 %)
Final printing                  :      0.001 s (25.067 %)
Total time                      :      0.002 s

Time for energy+gradient        :    106.430 s
Time for complete geometry iter :    106.460 s

         *************************************************************
         *                GEOMETRY OPTIMIZATION CYCLE   2            *
         *************************************************************
---------------------------------
CARTESIAN COORDINATES (ANGSTROEM)
---------------------------------
  C      1.886730    1.415444   -0.008295
  C      0.663872    2.292240    0.288447
  C     -0.556012    1.413724   -0.014343
  C      0.003420    0.022181    0.054926
  C      1.328679    0.023604    0.057581
  H      2.294671    1.605483   -1.004996
  H      2.699873    1.580434    0.698814
  H      0.664025    3.221798   -0.278036
  H      0.662267    2.558248    1.345575
  H     -1.374898    1.579500    0.685953
  H     -0.957232    1.603091   -1.013978
  H     -0.613129   -0.866581    0.052396
  H      1.947900   -0.863381    0.058148

----------------------------
CARTESIAN COORDINATES (A.U.)
----------------------------
  NO LB      ZA    FRAG     MASS         X           Y           Z
   0 C     4.0000*   0    12.011    3.565404    2.674801   -0.015674
   1 C     4.0000*   0    12.011    1.254536    4.331706    0.545086
   2 C     4.0000*   0    12.011   -1.050710    2.671552   -0.027104
   3 C     4.0000*   0    12.011    0.006463    0.041917    0.103796
   4 C     4.0000*   0    12.011    2.510839    0.044604    0.108812
   5 H     1.0000    0     1.008    4.336300    3.033923   -1.899167
   6 H     1.0000    0     1.008    5.102020    2.986588    1.320567
   7 H     1.0000    0     1.008    1.254826    6.088315   -0.525412
   8 H     1.0000    0     1.008    1.251503    4.834388    2.542769
   9 H     1.0000    0     1.008   -2.598181    2.984822    1.296264
  10 H     1.0000    0     1.008   -1.808906    3.029403   -1.916142
  11 H     1.0000    0     1.008   -1.158646   -1.637600    0.099015
  12 H     1.0000    0     1.008    3.680998   -1.631555    0.109884
* core charge reduced due to ECP

--------------------------------
INTERNAL COORDINATES (ANGSTROEM)
--------------------------------
 C      0   0   0     0.000000000000     0.00000000     0.00000000
 C      1   0   0     1.533691721363     0.00000000     0.00000000
 C      2   1   0     1.533488903553   105.57832633     0.00000000
 C      3   2   1     1.501383990744   103.02961040    20.57886991
 C      4   3   2     1.325261907596   111.82096278   346.73231411
 H      1   2   3     1.093592540014   111.98851140    97.44826729
 H      1   2   3     1.090149003452   112.50138226   217.57066467
 H      2   1   3     1.088568012317   112.79174985   236.46526571
 H      2   1   3     1.090084009122   109.16644112   117.36867008
 H      3   2   1     1.090170077614   112.55607281   142.64562566
 H      3   2   1     1.093667776276   111.90777483   262.64263654
 H      4   3   2     1.081682438584   123.30141508   169.56736766
 H      5   4   3     1.081747818688   124.85813791   182.84595921

---------------------------
INTERNAL COORDINATES (A.U.)
---------------------------
 C      0   0   0     0.000000000000     0.00000000     0.00000000
 C      1   0   0     2.898257327238     0.00000000     0.00000000
 C      2   1   0     2.897874057122   105.57832633     0.00000000
 C      3   2   1     2.837204564361   103.02961040    20.57886991
 C      4   3   2     2.504382061074   111.82096278   346.73231411
 H      1   2   3     2.066590402725   111.98851140    97.44826729
 H      1   2   3     2.060083061692   112.50138226   217.57066467
 H      2   1   3     2.057095421427   112.79174985   236.46526571
 H      2   1   3     2.059960240208   109.16644112   117.36867008
 H      3   2   1     2.060122886087   112.55607281   142.64562566
 H      3   2   1     2.066732578656   111.90777483   262.64263654
 H      4   3   2     2.044083572795   123.30141508   169.56736766
 H      5   4   3     2.044207123287   124.85813791   182.84595921

------------------------------------------------------------------------------
                   ___                                                        
                  /   \      - P O W E R E D   B Y -                         
                 /     \                                                     
                 |  |  |   _    _      __       _____    __    __             
                 |  |  |  | |  | |    /  \     |  _  \  |  |  /  |          
                  \  \/   | |  | |   /    \    | | | |  |  | /  /          
                 / \  \   | |__| |  /  /\  \   | |_| |  |  |/  /          
                |  |  |   |  __  | /  /__\  \  |    /   |      \           
                |  |  |   | |  | | |   __   |  |    \   |  |\   \          
                \     /   | |  | | |  |  |  |  | |\  \  |  | \   \       
                 \___/    |_|  |_| |__|  |__|  |_| \__\ |__|  \__/        
                                                                              
                      - O R C A' S   B I G   F R I E N D -                    
                                      &                                       
                       - I N T E G R A L  F E E D E R -                       
                                                                              
 v1 FN, 2020, v2 2021, v3 2022-2024                                           
------------------------------------------------------------------------------


----------------------
SHARK INTEGRAL PACKAGE
----------------------

Number of atoms                             ...     13
Number of basis functions                   ...    105
Number of shells                            ...     49
Maximum angular momentum                    ...      2
Integral batch strategy                     ... SHARK/LIBINT Hybrid
RI-J (if used) integral strategy            ... SPLIT-RIJ (Revised 2003 algorithm where possible)
Printlevel                                  ...      1
Contraction scheme used                     ... SEGMENTED contraction
Prescreening option                         ... SCHWARTZ
   Thresh                                   ... 2.500e-11
   Tcut                                     ... 2.500e-12
   Tpresel                                  ... 2.500e-12 
Coulomb Range Separation                    ... NOT USED
Exchange Range Separation                   ... Long Range
   Mu parameter                             ... 3.000e-01
   Scaling (regular/separated)              ... 1.670e-01 8.330e-01
Robust (split-)RI terms used:
  metric    (central integrals)             ... YES
  density   (r.h.s.  integrals)             ... YES
  potential (l.h.s.  integrals)             ... YES
Multipole approximations                    ... NOT USED
Finite Nucleus Model                        ... NOT USED
CABS basis                                  ... NOT available
Auxiliary Coulomb fitting basis             ... AVAILABLE
   # of basis functions in Aux-J            ...    333
   # of shells in Aux-J                     ...    115
   Maximum angular momentum in Aux-J        ...      4
Auxiliary J/K fitting basis                 ... NOT available
Auxiliary Correlation fitting basis         ... NOT available
Auxiliary 'external' fitting basis          ... NOT available

Checking pre-screening integrals            ... done (  0.0 sec) Dimension = 49
   => SHARK Basis and OBASIS are compatible. Storing Pre-screening
Shell pair information
Shell pair cut-off parameter TPreSel        ...   2.5e-12
Total number of shell pairs                 ...      1225
Shell pairs after pre-screening             ...      1225
Total number of primitive shell pairs       ...     11512
Primitive shell pairs kept                  ...     10529
          la=0 lb=0:    351 shell pairs
          la=1 lb=0:    468 shell pairs
          la=1 lb=1:    171 shell pairs
          la=2 lb=0:    130 shell pairs
          la=2 lb=1:     90 shell pairs
          la=2 lb=2:     15 shell pairs

Checking whether 4 symmetric matrices of dimension 105 fit in memory
:Max Core in MB      =   4096.00
 MB in use           =      6.11
 MB left             =   4089.89
 MB needed           =      0.17
 Data fit in memory  = YES
Calculating RI/J V-Matrix + Cholesky decomp.... done (  0.0 sec)
Calculating Nuclear repulsion               ... done (  0.0 sec) ENN=     93.373625942471 Eh

Diagonalization of the overlap matrix:
Smallest eigenvalue                        ... 1.418e-03
Time for diagonalization                   ...    0.001 sec
Threshold for overlap eigenvalues          ... 1.000e-07
[...]
  0 C s       :     0.981610  s :     0.981610
      pz      :     1.053132  p :     2.987785
      px      :     0.990093
      py      :     0.944561
      dz2     :     0.016015  d :     0.101046
      dxz     :     0.025698
      dyz     :     0.014830
      dx2y2   :     0.023625
      dxy     :     0.020878

  1 C s       :     0.990803  s :     0.990803
      pz      :     1.043068  p :     2.963554
      px      :     0.929930
      py      :     0.990556
      dz2     :     0.020887  d :     0.096708
      dxz     :     0.013143
      dyz     :     0.016711
      dx2y2   :     0.024528
      dxy     :     0.021439

  2 C s       :     0.981610  s :     0.981610
      pz      :     1.052917  p :     2.987783
      px      :     0.990348
      py      :     0.944518
      dz2     :     0.016177  d :     0.101047
      dxz     :     0.025504
      dyz     :     0.014835
      dx2y2   :     0.023666
      dxy     :     0.020865

  3 C s       :     1.042947  s :     1.042947
      pz      :     0.964678  p :     2.892659
      px      :     0.985148
      py      :     0.942832
      dz2     :     0.004777  d :     0.095531
      dxz     :     0.021633
      dyz     :     0.007739
      dx2y2   :     0.024380
      dxy     :     0.037003

  4 C s       :     1.042956  s :     1.042956
      pz      :     0.964689  p :     2.892653
      px      :     0.985136
      py      :     0.942828
      dz2     :     0.004756  d :     0.095526
      dxz     :     0.021640
      dyz     :     0.007745
      dx2y2   :     0.024362
      dxy     :     0.037022

  5 H s       :     0.917106  s :     0.917106
      pz      :     0.021066  p :     0.044004
      px      :     0.011799
      py      :     0.011139

  6 H s       :     0.915258  s :     0.915258
      pz      :     0.015681  p :     0.044264
      px      :     0.017552
      py      :     0.011031

  7 H s       :     0.920530  s :     0.920530
      pz      :     0.013686  p :     0.044495
      px      :     0.011020
      py      :     0.019789

  8 H s       :     0.925558  s :     0.925558
      pz      :     0.022158  p :     0.043035
      px      :     0.010575
      py      :     0.010303

  9 H s       :     0.915257  s :     0.915257
      pz      :     0.015612  p :     0.044265
      px      :     0.017626
      py      :     0.011027

 10 H s       :     0.917101  s :     0.917101
      pz      :     0.021116  p :     0.044005
      px      :     0.011751
      py      :     0.011137

 11 H s       :     0.936197  s :     0.936197
      pz      :     0.013728  p :     0.049254
      px      :     0.015130
      py      :     0.020396

 12 H s       :     0.936197  s :     0.936197
      pz      :     0.013731  p :     0.049254
      px      :     0.015149
      py      :     0.020375



                     *******************************
                     * LOEWDIN POPULATION ANALYSIS *
                     *******************************

----------------------
LOEWDIN ATOMIC CHARGES
----------------------
   0 C :   -0.082462
   1 C :   -0.066221
   2 C :   -0.082460
   3 C :   -0.045016
   4 C :   -0.044998
   5 H :    0.043181
   6 H :    0.042519
   7 H :    0.038730
   8 H :    0.043337
   9 H :    0.042519
  10 H :    0.043184
  11 H :    0.033845
  12 H :    0.033844

-------------------------------
LOEWDIN REDUCED ORBITAL CHARGES
-------------------------------
  0 C s       :     0.758315  s :     0.758315
      pz      :     1.062161  p :     3.005139
      px      :     0.993894
      py      :     0.949085
      dz2     :     0.050568  d :     0.319008
      dxz     :     0.083395
      dyz     :     0.044202
      dx2y2   :     0.074050
      dxy     :     0.066792

  1 C s       :     0.760008  s :     0.760008
      pz      :     1.061509  p :     2.994411
      px      :     0.931037
      py      :     1.001865
      dz2     :     0.067840  d :     0.311803
      dxz     :     0.043103
      dyz     :     0.055863
      dx2y2   :     0.079634
      dxy     :     0.065362

  2 C s       :     0.758315  s :     0.758315
      pz      :     1.061984  p :     3.005136
      px      :     0.994113
      py      :     0.949039
      dz2     :     0.051101  d :     0.319009
      dxz     :     0.082743
      dyz     :     0.044220
      dx2y2   :     0.074208
      dxy     :     0.066736

  3 C s       :     0.809274  s :     0.809274
      pz      :     0.880530  p :     2.927859
      px      :     1.052529
      py      :     0.994800
      dz2     :     0.021369  d :     0.307883
      dxz     :     0.050771
      dyz     :     0.027199
      dx2y2   :     0.081946
      dxy     :     0.126598

  4 C s       :     0.809281  s :     0.809281
      pz      :     0.880548  p :     2.927849
      px      :     1.052598
      py      :     0.994704
      dz2     :     0.021300  d :     0.307868
      dxz     :     0.050783
      dyz     :     0.027240
      dx2y2   :     0.081890
      dxy     :     0.126655

  5 H s       :     0.802629  s :     0.802629
      pz      :     0.065626  p :     0.154190
      px      :     0.045577
      py      :     0.042988

  6 H s       :     0.804454  s :     0.804454
      pz      :     0.054033  p :     0.153027
      px      :     0.056560
      py      :     0.042434

  7 H s       :     0.807669  s :     0.807669
      pz      :     0.049812  p :     0.153601
      px      :     0.042200
      py      :     0.061589

  8 H s       :     0.803491  s :     0.803491
      pz      :     0.068501  p :     0.153172
      px      :     0.041295
      py      :     0.043376

  9 H s       :     0.804457  s :     0.804457
      pz      :     0.053885  p :     0.153024
      px      :     0.056715
      py      :     0.042424

 10 H s       :     0.802626  s :     0.802626
      pz      :     0.065725  p :     0.154190
      px      :     0.045482
      py      :     0.042983

 11 H s       :     0.813155  s :     0.813155
      pz      :     0.044478  p :     0.153000
      px      :     0.046632
      py      :     0.061890

 12 H s       :     0.813157  s :     0.813157
      pz      :     0.044482  p :     0.152999
      px      :     0.046670
      py      :     0.061847



                      *****************************
                      * MAYER POPULATION ANALYSIS *
                      *****************************

  NA   - Mulliken gross atomic population
  ZA   - Total nuclear charge
  QA   - Mulliken gross atomic charge
  VA   - Mayer's total valence
  BVA  - Mayer's bonded valence
  FA   - Mayer's free valence

  ATOM       NA         ZA         QA         VA         BVA        FA
  0 C      4.0704     4.0000    -0.0704     4.0175     4.0175    -0.0000
  1 C      4.0511     4.0000    -0.0511     3.9809     3.9809     0.0000
  2 C      4.0704     4.0000    -0.0704     4.0175     4.0175     0.0000
  3 C      4.0311     4.0000    -0.0311     4.0183     4.0183     0.0000
  4 C      4.0311     4.0000    -0.0311     4.0184     4.0184    -0.0000
  5 H      0.9611     1.0000     0.0389     1.0248     1.0248     0.0000
  6 H      0.9595     1.0000     0.0405     1.0192     1.0192    -0.0000
  7 H      0.9650     1.0000     0.0350     1.0287     1.0287     0.0000
  8 H      0.9686     1.0000     0.0314     1.0226     1.0226     0.0000
  9 H      0.9595     1.0000     0.0405     1.0192     1.0192     0.0000
 10 H      0.9611     1.0000     0.0389     1.0248     1.0248     0.0000
 11 H      0.9855     1.0000     0.0145     1.0497     1.0497    -0.0000
 12 H      0.9855     1.0000     0.0145     1.0497     1.0497    -0.0000

  Mayer bond orders larger than 0.100000
B(  0-C ,  1-C ) :   0.9821 B(  0-C ,  4-C ) :   1.0249 B(  0-C ,  5-H ) :   0.9829 
B(  0-C ,  6-H ) :   0.9938 B(  1-C ,  2-C ) :   0.9821 B(  1-C ,  7-H ) :   1.0041 
B(  1-C ,  8-H ) :   0.9987 B(  2-C ,  3-C ) :   1.0249 B(  2-C ,  9-H ) :   0.9938 
B(  2-C , 10-H ) :   0.9829 B(  3-C ,  4-C ) :   1.9156 B(  3-C , 11-H ) :   1.0019 
B(  4-C , 12-H ) :   1.0019 

-------
TIMINGS
-------

Total SCF time: 0 days 0 hours 0 min 43 sec 

Total time                  ....      43.296 sec
Sum of individual times     ....      38.889 sec  ( 89.8%)

SCF preparation             ....       0.073 sec  (  0.2%)
Fock matrix formation       ....      38.769 sec  ( 89.5%)
  Startup                   ....       0.001 sec  (  0.0% of F)
  Split-RI-J                ....       1.015 sec  (  2.6% of F)
  Chain of spheres X        ....      39.899 sec  (102.9% of F)
  XC integration            ....       2.129 sec  (  5.5% of F)
    XC Preparation          ....       0.000 sec  (  0.0% of XC)
    Basis function eval.    ....       0.895 sec  ( 42.1% of XC)
    Density eval.           ....       0.288 sec  ( 13.5% of XC)
    XC-Functional eval.     ....       0.537 sec  ( 25.2% of XC)
    XC-Potential eval.      ....       0.365 sec  ( 17.1% of XC)
Diagonalization             ....       0.000 sec  (  0.0%)
Density matrix formation    ....       0.008 sec  (  0.0%)
Total Energy calculation    ....       0.002 sec  (  0.0%)
Population analysis         ....       0.012 sec  (  0.0%)
Orbital Transformation      ....       0.007 sec  (  0.0%)
Orbital Orthonormalization  ....       0.000 sec  (  0.0%)
DIIS solution               ....       0.004 sec  (  0.0%)
SOSCF solution              ....       0.014 sec  (  0.0%)
Finished LeanSCF after  43.3 sec

Maximum memory used throughout the entire LEANSCF-calculation: 17.5 MB


-------------------------------------------------------------------------------
                          DFT DISPERSION CORRECTION                            
                                                                               
                                DFTD4 V3.4.0                                   
-------------------------------------------------------------------------------
The wB97X-3c composite method is recognized
Using three-body term ABC
Active option DFTDOPT                   ...         5   

-------------------------   ----------------
Dispersion correction           -0.011763819
-------------------------   ----------------


-------------------------   --------------------
FINAL SINGLE POINT ENERGY       -33.289869275484
-------------------------   --------------------

                                *** OPTIMIZATION RUN DONE ***


------------------------------------------------------------------------------
                              ORCA PROPERTY CALCULATIONS
------------------------------------------------------------------------------

GBWName                                 ... opt.gbw
Number of atoms                         ...     13
Number of basis functions               ...    105
Max core memory                         ...   4096 MB

Electric properties:
Dipole moment                           ... YES
Quadrupole moment                       ...  NO
Static polarizability (Dipole/Dipole)   ...  NO
Static polarizability (Dipole/Quad.)    ...  NO
Static polarizability (Quad./Quad.)     ...  NO
Static polarizability (Velocity)        ...  NO
Static hyperpolarizability              ...  NO

Atomic electric properties:
Dipole moment                           ...  NO
Quadrupole moment                       ...  NO
Static polarizability                   ...  NO

Choice of electric origin               ... Center of mass
Position of electric origin             ...     1.257571     2.012415     0.139172

General magnetic properties:
Magnetizability                         ...  NO

EPR properties:
g-Tensor (aka g-matrix)                 ...  NO
Zero-Field splitting spin-orbit         ...  NO
Zero-field splitting spin-spin          ...  NO
Hyperfine couplings                     ...  NO (   0 nuclei)
Quadrupole couplings                    ...  NO (   0 nuclei)
Contact density                         ...  NO (   0 nuclei)

NMR properties:
Chemical shifts                         ...  NO (   0 nuclei)
Spin-rotation constants                 ...  NO (   0 nuclei)
Spin-spin couplings                     ...  NO (   0 nuclei,    0 pairs)

Choice of magnetic origin               ... GIAO
Position of magnetic origin             ...     0.000000     0.000000     0.000000

Properties with geometric perturbations:
SCF Hessian                             ...  NO
IR spectrum                             ...  NO
VCD spectrum                            ...  NO
X-ray spectroscopy properties:
SCF XES/XAS/RIXS spectra                ...  NO

SCF SOC stabilization energy            ...  NO
Diagonal Born-Oppenheimer correction    ...  NO

-------------
DIPOLE MOMENT
-------------

Method             : SCF
Type of density    : Electron Density
Multiplicity       :   1
Irrep              :   0
Energy             :   -33.2781054562961813 Eh
Basis              : AO
                                X                 Y                 Z
Electronic contribution:      0.001478212      -2.293636442       0.012493511
Nuclear contribution   :     -0.001430827       2.386858138      -0.048254481
                        -----------------------------------------
Total Dipole Moment    :      0.000047385       0.093221696      -0.035760970
                        -----------------------------------------
Magnitude (a.u.)       :      0.099845549
Magnitude (Debye)      :      0.253787218



--------------------
Rotational spectrum 
--------------------
 
Rotational constants in cm-1:             0.246882             0.245010             0.133539 
Rotational constants in MHz :          7401.347385          7345.223202          4003.391242 

Dipole components along the rotational axes: 
x,y,z [a.u.] :     0.000022     0.090850    -0.041417 
x,y,z [Debye]:     0.000055     0.230923    -0.105272 

 

Dipole moment calculation done in   0.0 sec 

Maximum memory used throughout the entire PROP-calculation: 9.3 MB

--------------------------------
SUGGESTED CITATIONS FOR THIS RUN
--------------------------------

Below you find a list of papers that are relevant to this ORCA run
We neither can nor want to force you to cite these papers, but we appreciate if you do
You receive ORCA, which is the product of decades of hard work by many enthusiastic individuals, for free
The only thing we kindly ask in return is that you cite our papers,
We deeply appreciate it, if you show your appreciation for ORCA by not just citing the generic ORCA reference.

Please note that relegating all ORCA citations to the supporting information does *not* help us.
SI sections are not indexed - citations you put there will not count into any citation statistics
But we need these citations in order to attract the funding resources that allow us to do what we are doing

Therefore, if you are a happy ORCA user, please consider citing a few of the papers listed below in the main body of your paper

In addition to the list printed below, the program has created the file opt.bibtex that contains the list in bibtex format
You can import this file easily into all common literature databanks and citation aid programs


List of essential papers. We consider these as the minimum necessary citations

  1. Mueller, M.; Hansen, A.; Grimme, S.
     wB97X-3c: A composite range-separated hybrid DFT method with a molecule-optimized polarized valence double-zeta basis set
     J. Chem. Phys. 2023 158 , 014103
     doi.org/10.1063/5.0133026
  2. Neese, F.
     Software update: the ORCA program system, version 6.0
     WIRES Comput. Molec. Sci. 2025 15(1), e70019
     doi.org/10.1002/wcms.7019

List of papers to cite with high priority. The work reported in these papers was absolutely
necessary for this run to complete.
Our perspective: the developers of density functionals and basis sets usually get cited in chemistry papers
Good! But without the algorithms to do something with them, the functionals or basis sets would not do anything.
Hence, in our opinion, the algorithm design and method developments papers are equally worthy of getting cited

  1. Neese, F.
     An improvement of the resolution of the identity approximation for the formation of the Coulomb matrix
     J. Comp. Chem. 2003 24(14), 1740-1747
     doi.org/10.1002/jcc.10318
  2. Neese, F.; Wennmohs, F.; Hansen, A.; Becker, U.
     Efficient, approximate and parallel Hartree-Fock and hybrid DFT calculations. A 'chain-of-spheres' algorithm for the Hartree-Fock exchange
     Chem. Phys. 2009 356(1-3), 98-109
     doi.org/10.1016/j.chemphys.2008.10.036
  3. Caldeweyher, E.; Bannwarth, C.; Grimme, S.
     Extension of the D3 dispersion coefficient model
     J. Chem. Phys. 2017 147 , 034112
     doi.org/10.1063/1.4993215
  4. Caldeweyher, E.; Ehlert, S.; Hansen, A.; Neugebauer, H.; Spicher, S.; Bannwarth, C.; Grimme, S.
     A generally applicable atomic-charge dependent London dispersion correction
     J. Chem. Phys. 2019 150 , 154122
     doi.org/10.1063/1.5090222
  5. Caldeweyher, E.; Mewes, J.; Ehlert, S.; Grimme, S.
     Extension and evaluation of the D4 London-dispersion model for periodic systems
     Phys. Chem. Chem. Phys. 2020 22(16), 8499-8512
     doi.org/10.1039/D0CP00502A
  6. Helmich-Paris, B.; de Souza, B.; Neese, F.; Izsák, R.
     An improved chain of spheres for exchange algorithm
     J. Chem. Phys. 2021 155(10), 104109
     doi.org/10.1063/5.0058766
  7. Neese, F.
     The SHARK Integral Generation and Digestion System
     J. Comp. Chem. 2022 44(3), 381
     doi.org/10.1002/jcc.26942
  8. Wittmann, L.; Gordiy, I.; Friede, M.; Helmich-Paris, B.; Grimme, S.; Hansen, A.; Bursch, M.
     Extension of the D3 and D4 London Dispersion Corrections to the full Actinides Series
     Phys. Chem. Chem. Phys. 2024 26(32), 21379-21394
     doi.org/10.1039/D4CP01514B

List of suggested additional citations. These are papers that are important in the 'surrounding' of 
of this run, or papers that preceded the highly important papers. If you like your results we are grateful for a citation.

  1. Izsak, R.; Neese, F.
     An overlap fitted chain of spheres exchange method
     J. Chem. Phys. 2011 135 , 144105
     doi.org/10.1063/1.3646921
  2. Izsak, R.; Hansen, A.; Neese, F.
     The resolution of identity and chain of spheres approximations for the LPNO-CCSD singles Fock term
     Molec. Phys. 2012 110 , 2413-2417
     doi.org/10.1080/00268976.2012.687466
  3. Neese, F.
     The ORCA program system
     WIRES Comput. Molec. Sci. 2012 2(1), 73-78
     doi.org/10.1002/wcms.81
  4. Izsak, R.; Neese, F.; Klopper, W.
     Robust fitting techniques in the chain of spheres approximation to the Fock exchange: The role of the complementary space
     J. Chem. Phys. 2013 139 , 
     doi.org/10.1063/1.4819264
  5. Neese, F.
     Software update: the ORCA program system, version 4.0
     WIRES Comput. Molec. Sci. 2018 8(1), 1-6
     doi.org/10.1002/wcms.1327
  6. Neese, F.; Wennmohs, F.; Becker, U.; Riplinger, C.
     The ORCA quantum chemistry program package
     J. Chem. Phys. 2020 152(22), 224108
     doi.org/10.1063/5.0004608
  7. Neese, F.
     Software update: The ORCA program system—Version 5.0
     WIRES Comput. Molec. Sci. 2022 12(1), e1606
     doi.org/10.1002/wcms.1606

List of optional additional citations

  1. Neese, F.
     Approximate second-order SCF convergence for spin unrestricted wavefunctions
     Chem. Phys. Lett. 2000 325(1-3), 93-98
     doi.org/10.1016/s0009-2614(00)00662-x

Timings for individual modules:

Sum of individual times          ...      409.129 sec (=   6.819 min)
Startup calculation              ...        4.612 sec (=   0.077 min)   1.1 %
SCF iterations                   ...      266.022 sec (=   4.434 min)  65.0 %
Property calculations            ...        0.068 sec (=   0.001 min)   0.0 %
SCF Gradient evaluation          ...      138.405 sec (=   2.307 min)  33.8 %
Geometry relaxation              ...        0.022 sec (=   0.000 min)   0.0 %
                             ****ORCA TERMINATED NORMALLY****
TOTAL RUN TIME: 0 days 0 hours 6 minutes 49 seconds 553 msec
