
                                 *****************
                                 * O   R   C   A *
                                 *****************

                                            #,                                       
                                            ###                                      
                                            ####                                     
                                            #####                                    
                                            ######                                   
                                           ########,                                 
                                     ,,################,,,,,                         
                               ,,#################################,,                 
                          ,,##########################################,,             
                       ,#########################################, ''#####,          
                    ,#############################################,,   '####,        
                  ,##################################################,,,,####,       
                ,###########''''           ''''###############################       
              ,#####''   ,,,,##########,,,,          '''####'''          '####       
            ,##' ,,,,###########################,,,                        '##       
           ' ,,###''''                  '''############,,,                           
         ,,##''                                '''############,,,,        ,,,,,,###''
      ,#''                                            '''#######################'''  
     '                                                          ''''####''''         
             ,#######,   #######,   ,#######,      ##                                
            ,#'     '#,  ##    ##  ,#'     '#,    #''#        ,####,    ,#,          
            ##       ##  ##   ,#'  ##            #'  '#       #'       ,# #          
            ##       ##  #######   ##           ,######,      #####,      #          
            '#,     ,#'  ##    ##  '#,     ,#' ,#      #,     #,   #      #          
             '#######'   ##     ##  '#######'  #'      '#     '####' #    #          



                #########################################################
                #                        -***-                          #
                #          Department of theory and spectroscopy        #
                #                                                       #
                #                      Frank Neese                      #
                #                                                       #
                #     Directorship, Architecture, Infrastructure        #
                #                    SHARK, DRIVERS                     #
                #        Core code/Algorithms in most modules           #
                #                                                       #
                #        Max Planck Institute fuer Kohlenforschung      #
                #                Kaiser Wilhelm Platz 1                 #
                #                 D-45470 Muelheim/Ruhr                 #
                #                      Germany                          #
                #                                                       #
                #                  All rights reserved                  #
                #                        -***-                          #
                #########################################################


                         Program Version 6.1.0  -  RELEASE   -
                                (GIT: $679e74b$)
                          ($2025-06-10 18:02:51 +0200$)


 With contributions from (in alphabetic order):
[Max-Planck-Institut fuer Kohlenforschung]                               
  Daniel Aravena         : Magnetic Suceptibility                        
  Michael Atanasov       : Ab Initio Ligand Field Theory (pilot matlab implementation)
  Alexander A. Auer      : GIAO ZORA, VPT2 properties, NMR spectrum      
  Ute Becker             : All parallelization in ORCA, NUMFREQ, NUMCALC 
  Giovanni Bistoni       : ED, misc. LED, open-shell LED, HFLD           
  Dmytro Bykov           : pre 5.0 version of the SCF Hessian            
  Marcos Casanova-Páez   : Triplet and SCS-CIS(D). UHF-(DLPNO)-IP/EA/STEOM-CCSD. UHF-CVS-IP/STEOM-CCSD   
  Vijay G. Chilkuri      : MRCI spin determinant printing, contributions to CSF-ICE 
  Pauline Colinet        : FMM embedding                                 
  Dipayan Datta          : RHF DLPNO-CCSD density                        
  Achintya Kumar Dutta   : EOM-CC, STEOM-CC                              
  Nicolas Foglia         : Exact transition moments, OPA infrastructure, MCD improvements    
  Dmitry Ganyushin       : Spin-Orbit,Spin-Spin,Magnetic field MRCI      
  Miquel Garcia-Rates    : C-PCM and meta-GGA Hessian, CCSD/C-PCM, Gaussian charge scheme 
  Tiago L. C. Gouveia    : GS-ROHF, GS-ROCIS                             
  Yang Guo               : DLPNO-NEVPT2, F12-NEVPT2, CIM, IAO-localization        
  Andreas Hansen         : Spin unrestricted coupled pair/coupled cluster methods 
  Ingolf Harden          : AUTO-CI MPn and infrastructure                
  Benjamin Helmich-Paris : MC-RPA, TRAH-(SCF,CASSCF), AVAS, COSX integrals, SCF dyn. polar., MC-PDFT, srDFT 
  Lee Huntington         : MR-EOM, pCC                                   
  Robert Izsak           : Overlap fitted RIJCOSX, COSX-SCS-MP3, EOM     
  Riya Kayal             : Wick's Theorem for AUTO-CI, AUTO-CI UHF-CCSDT 
  Emily Kempfer          : AUTO-CI RHF CISDT and CCSDT, approximate NEVPT4
  Christian Kollmar      : KDIIS, OOCD, Brueckner-CCSD(T), CCSD density, CASPT2, CASPT2-K, improved NEVPT2 
  Axel Koslowski         : Symmetry handling                             
  Simone Kossmann        : meta-GGA functionals, TD-DFT gradient, OOMP2, (MP2 Hessian; deprecated post 5.0) 
  Lucas Lang             : DCDCAS, Hyperfine gauge corrections, ICE-SOC+SSC
  Marvin Lechner         : AUTO-CI (C++ implementation), FIC-MRCC        
  Spencer Leger          : CASSCF response                               
  Dagmar Lenk            : GEPOL surface, SMD, ORCA-2-JSON               
  Dimitrios Liakos       : Extrapolation schemes; Compound Job, Property file
  Dimitrios Manganas     : Further ROCIS development; embedding schemes. LFT, Crystal Embedding 
  Dimitrios Pantazis     : SARC Basis sets                               
  Anastasios Papadopoulos: AUTO-CI, single reference methods and gradients 
  Taras Petrenko         : pre 6.0 DFT Hessian and TD-DFT gradient,  ECA, NRVS 
  Petra Pikulova         : Analytic Raman intensities                    
  Peter Pinski           : DLPNO-MP2, DLPNO-MP2 Gradient                 
  Shashank Vittal Rao    : ES-AILFT, MagRelax                            
  Christoph Reimann      : Effective Core Potentials                     
  Marius Retegan         : Local ZFS, SOC                                
  Christoph Riplinger    : Optimizer, TS searches, QM/MM, DLPNO-CCSD(T), (RO)-DLPNO pert. Triples 
  Michael Roemelt        : Original ROCIS implementation, recursive CI coupling coefficients
  Masaaki Saitow         : Open-shell DLPNO-CCSD energy and density      
  Barbara Sandhoefer     : DKH picture change effects                    
  Yorick L. A. Schmerwitz: GMF and freeze-and-release deltaSCF, NEB S-IDPP initial path                    
  Kantharuban Sivalingam : CASSCF convergence/infrastructure, NEVPT2, NEVPT3, NEVPT4(SD), FIC-MRCI and CEPA variants
  Bernardo de Souza      : ESD, SOC TD-DFT                               
  Georgi L. Stoychev     : AutoAux, RI-MP2 NMR, DLPNO-MP2 response, X2C  
  Van Anh Tran           : RI-MP2 g-tensors                              
  Willem Van den Heuvel  : Paramagnetic NMR                              
  Zikuan Wang            : NOTCH, Electric field optimization            
  Frank Wennmohs         : Technical directorship and infrastructure     
  Hang Xu                : AUTO-CI-Response properties                   
                                                                         
[FACCTs GmbH]                                                            
  Markus Bursch, Nicolas Foglia, Miquel Garcia-Rates, Ingolf Harden, Hagen Neugebauer, Anastasios Papadopoulos, 
  Christoph Riplinger, Bernardo de Souza, Georgi L. Stoychev                                                    
                                                                 
  APM, various basis sets, CI-OPT, improved COSX, DLPNO-Multilevel,           
  DOCKER, DRACO, updates on ESD, Fragmentator, GOAT, IRC, LR-CPCM, L-BFGS, MBIS, meta-GGA TD-DFT gradient, ML-optimized integration grids, 
  MM, NACMEs, nearIR, NEB, NEB-TS, NL-DFT gradient (VV10), 2- and 3-layer-ONIOM, interface openCOSMO-RS, QMMM,   
  Crystal-QMMM, RESP, rigid body optimization, SF, symmetry and pop. for TD-DFT, various functionals, SOLVATOR                                   
                                                                         
[Other institutions]                                                     
  V. Asgeirsson          : NEB                                           
  Christoph Bannwarth    : sTDA-DFT, sTD-DFT, PBEh-3c, B97-3c, D3        
  Giovanni Bistoni       : ETS/NOCV, ADLD/ADEX, COVALED                  
  Martin Brehm           : Molecular dynamics                            
  Ronald Cardenas        : ETS/NOCV                                      
  Martina Colucci        : COVALED                                       
  Sebastian Ehlert       : rSCAN, r2SCAN, r2SCAN-3c, D4, dhf basis sets  
  Marvin Friede          : D4 for Fr, Ra, Ac-Lr                          
  Lars Goerigk           : TD-DFT with DH, B97 family of functionals     
  Stefan Grimme          : VdW corrections, initial TS optimization, DFT functionals, gCP, sTDA/sTD-DF 
  Waldemar Hujo          : DFT-NL                                        
  H. Jonsson             : NEB                                           
  Holger Kruse           : gCP                                           
  Marcel Mueller         : wB97X-3c, vDZP basis set                      
  Hagen Neugebauer       : wr2SCAN, Native XTB                           
  Gianluca Regni         : ADLD/ADEX                                     
  Tobias Risthaus        : pre 6.0 range-separated hybrid DFT and stability analysis
  Lukas Wittmann         : regularized MP2, r2SCAN double-hybrids, wr2SCAN        
                                                                         
We gratefully acknowledge several colleagues who have allowed us to      
interface, adapt or use parts of their codes:                            
  Ed Valeev, F. Pavosevic, A. Kumar             : LibInt (2-el integral package), F12 methods 
  Garnet Chan, S. Sharma, J. Yang, R. Olivares  : DMRG                   
  Ulf Ekstrom                                   : XCFun DFT Library      
  Mihaly Kallay                                 : mrcc  (arbitrary order and MRCC methods)
  Frank Weinhold                                : gennbo (NPA and NBO analysis)           
  Simon Mueller                                 : openCOSMO-RS                            
  Christopher J. Cramer and Donald G. Truhlar   : smd solvation model                     
  S Lehtola, MJT Oliveira, MAL Marques          : LibXC Library                           
  Liviu Ungur et al                             : ANISO software                          


 Your calculation uses the libint2 library for the computation of 2-el integrals
 For citations please refer to: http://libint.valeyev.net

 Your ORCA version has been built with support for libXC version: 7.0.0
 For citations please refer to: https://libxc.gitlab.io

 This ORCA versions uses:
   CBLAS   interface :  Fast vector & matrix operations
   LAPACKE interface :  Fast linear algebra routines
   SCALAPACK package :  Parallel linear algebra routines
   Shared memory     :  Shared parallel matrices
   BLAS/LAPACK       :  OpenBLAS 0.3.29  USE64BITINT DYNAMIC_ARCH NO_AFFINITY SkylakeX SINGLE_THREADED
        Core in use  :  SkylakeX
   Copyright (c) 2011-2014, The OpenBLAS Project


  ***********************************
  * Starting time: Fri Aug  1 15:31:50 2025
  * Host name:     csed-0001
  * Process ID:    582890
  * Working dir.:  /gpfs/fs1/home/copan/proj/cyclopentene-oh-addition-project/C3e1
  ***********************************

Warning: RI is on but no J-basis has been assigned. Assigning Def2/J (nothing to worry about!)
================================================================================

----- Orbital basis set information -----
Your calculation utilizes the basis: cc-pVTZ 
       H, B-Ne : Obtained from the ccRepo (grant-hill.group.shef.ac.uk/ccrepo) Feb. 2017
                 T. H. Dunning, Jr., J. Chem. Phys. 90, 1007 (1989)
            He : Obtained from the ccRepo (grant-hill.group.shef.ac.uk/ccrepo) Feb. 2017
                 D. E. Woon, T. H. Dunning, Jr., J. Chem. Phys. 100, 2975 (1994)
  Li-Be, Na-Mg : Obtained from the ccRepo (grant-hill.group.shef.ac.uk/ccrepo) Feb. 2017
                 B. P. Prascher, D. E. Woon, K. A. Peterson, T. H. Dunning, Jr., A. K. Wilson, Theor. Chem. Acc. 128, 69 (2011)
         Al-Ar : Obtained from the ccRepo (grant-hill.group.shef.ac.uk/ccrepo) Feb. 2017
                 D. E. Woon, T. H. Dunning, Jr., J. Chem. Phys. 98, 1358 (1993)
            Ca : Obtained from the Peterson Research Group Website (tyr0.chem.wsu.edu/~kipeters) Feb. 2017
                 J. Koput, K. A. Peterson, J. Phys. Chem. 106, 9595 (2002)
         Sc-Zn : Obtained from the ccRepo (grant-hill.group.shef.ac.uk/ccrepo) Feb. 2017
                 N. B. Balabanov, K. A. Peterson, J. Chem. Phys. 123, 064107 (2005)
                 N. B. Balabanov, K. A. Peterson, J. Chem. Phys. 125, 074110 (2006)
         Ga-Kr : Obtained from the ccRepo (grant-hill.group.shef.ac.uk/ccrepo) Feb. 2017
                 A. K. Wilson, D. E. Woon, K. A. Peterson, T. H. Dunning, Jr., J. Chem. Phys. 110, 7667 (1999)
             Y : Obtained from the ccRepo (grant-hill.group.shef.ac.uk/ccrepo) Feb. 2017
                 K. A. Peterson, D. Figgen, M. Dolg, H. Stoll, J. Chem. Phys. 126, 124101 (2007)
        Ag, Au : Obtained from the Peterson Research Group Website (tyr0.chem.wsu.edu/~kipeters) Feb. 2017
                 K. A. Peterson, C. Puzzarini, Theor. Chem. Acc. 114, 283 (2005)

----- AuxJ basis set information -----
Your calculation utilizes the auxiliary basis: def2/J
   H-Rn: F. Weigend, Phys. Chem. Chem. Phys. 8, 1057 (2006).
   Fr-Lr: K. Eichkorn, F. Weigend, O. Treutler, R. Ahlrichs; Theor. Chem. Acc. 97, 119 (1997).

================================================================================
                                        WARNINGS
                       Please study these warnings very carefully!
================================================================================


WARNING: Geometry Optimization
  ===> : Switching off AutoStart
         For restart on a previous wavefunction, please use MOREAD

================================================================================
                                       INPUT FILE
================================================================================
NAME = opt.inp
|  1> !B3LYP cc-pVTZ OPT
|  2> * xyz 0 1
|  3>  C                  1.27786800    0.21987300    0.00000400 
|  4>  C                  0.13407900   -0.45226600    0.00000300 
|  5>  H                  1.29878900    1.30342900   -0.00001600 
|  6>  H                  2.23356700   -0.28672700   -0.00001100 
|  7>  H                  0.16671100   -1.53813400   -0.00001200 
|  8>  C                 -1.23058900    0.16195500   -0.00000300 
|  9>  H                 -1.80381700   -0.15348000   -0.87590700 
| 10>  H                 -1.80373000   -0.15330000    0.87602600 
| 11>  H                 -1.17966500    1.25083900   -0.00010800
| 12> **                         ****END OF INPUT****
================================================================================

                       *****************************
                       * Geometry Optimization Run *
                       *****************************

Geometry optimization settings:
Update method            Update   .... BFGS
Choice of coordinates    CoordSys .... (2022) Redundant Internals
Initial Hessian          InHess   .... Almloef's Model
Max. no of cycles        MaxIter  .... 50

Convergence Tolerances:
Energy Change            TolE     ....  5.0000e-06 Eh
Max. Gradient            TolMAXG  ....  3.0000e-04 Eh/bohr
RMS Gradient             TolRMSG  ....  1.0000e-04 Eh/bohr
Max. Displacement        TolMAXD  ....  4.0000e-03 bohr
RMS Displacement         TolRMSD  ....  2.0000e-03 bohr
Strict Convergence                .... False

------------------------------------------------------------------------------
                        ORCA OPTIMIZATION COORDINATE SETUP
------------------------------------------------------------------------------

The optimization will be done in redundant internal coordinates (2022)
Making redundant internal coordinates   ...  (2022 redundants) done
Evaluating the initial hessian          ...  (Almloef) done
Evaluating the coordinates              ...  done
Calculating the B-matrix                .... done
Calculating the G-matrix                .... done
The number of degrees of freedom        ....   29

    -----------------------------------------------------------------
                    Redundant Internal Coordinates


    -----------------------------------------------------------------
         Definition                    Initial Value    Approx d2E/dq
    -----------------------------------------------------------------
      1. B(C   1,C   0)                  1.3267         0.788488   
      2. B(H   2,C   0)                  1.0838         0.368453   
      3. B(H   3,C   0)                  1.0817         0.371294   
      4. B(H   4,C   1)                  1.0864         0.364950   
      5. B(C   5,C   1)                  1.4965         0.422460   
      6. B(H   6,C   5)                  1.0933         0.355765   
      7. B(H   7,C   5)                  1.0933         0.355762   
      8. B(H   8,C   5)                  1.0901         0.360002   
      9. A(C   1,C   0,H   2)          121.5464         0.369116   
     10. A(C   1,C   0,H   3)          121.6324         0.369604   
     11. A(H   2,C   0,H   3)          116.8212         0.293300   
     12. A(H   4,C   1,C   5)          115.9533         0.331694   
     13. A(C   0,C   1,C   5)          125.3277         0.423059   
     14. A(C   0,C   1,H   4)          118.7190         0.368511   
     15. A(C   1,C   5,H   6)          111.0819         0.330298   
     16. A(H   7,C   5,H   8)          108.2163         0.290274   
     17. A(H   6,C   5,H   8)          108.2171         0.290275   
     18. A(C   1,C   5,H   8)          111.5543         0.330946   
     19. A(H   6,C   5,H   7)          106.4925         0.289736   
     20. A(C   1,C   5,H   7)          111.0811         0.330298   
     21. D(C   5,C   1,C   0,H   3)   -179.9988         0.044788   
     22. D(C   5,C   1,C   0,H   2)     -0.0010         0.044788   
     23. D(H   4,C   1,C   0,H   2)    179.9979         0.044788   
     24. D(H   4,C   1,C   0,H   3)      0.0001         0.044788   
     25. D(H   6,C   5,C   1,H   4)    -59.1618         0.013193   
     26. D(H   7,C   5,C   1,C   0)   -120.8240         0.013193   
     27. D(H   6,C   5,C   1,C   0)    120.8371         0.013193   
     28. D(H   8,C   5,C   1,C   0)      0.0057         0.013193   
     29. D(H   7,C   5,C   1,H   4)     59.1771         0.013193   
    -----------------------------------------------------------------

Number of atoms                         .... 9
Number of degrees of freedom            .... 29


         *************************************************************
         *                GEOMETRY OPTIMIZATION CYCLE   1            *
         *************************************************************
---------------------------------
CARTESIAN COORDINATES (ANGSTROEM)
---------------------------------
  C      1.277868    0.219873    0.000004
  C      0.134079   -0.452266    0.000003
  H      1.298789    1.303429   -0.000016
  H      2.233567   -0.286727   -0.000011
  H      0.166711   -1.538134   -0.000012
  C     -1.230589    0.161955   -0.000003
  H     -1.803817   -0.153480   -0.875907
  H     -1.803730   -0.153300    0.876026
  H     -1.179665    1.250839   -0.000108

----------------------------
CARTESIAN COORDINATES (A.U.)
----------------------------
  NO LB      ZA    FRAG     MASS         X           Y           Z
   0 C     6.0000    0    12.011    2.414821    0.415500    0.000008
   1 C     6.0000    0    12.011    0.253373   -0.854659    0.000006
   2 H     1.0000    0     1.008    2.454356    2.463124   -0.000030
   3 H     1.0000    0     1.008    4.220830   -0.541836   -0.000021
   4 H     1.0000    0     1.008    0.315038   -2.906652   -0.000023
   5 C     6.0000    0    12.011   -2.325476    0.306051   -0.000006
   6 H     1.0000    0     1.008   -3.408720   -0.290035   -1.655224
   7 H     1.0000    0     1.008   -3.408556   -0.289695    1.655449
   8 H     1.0000    0     1.008   -2.229244    2.363743   -0.000204

--------------------------------
INTERNAL COORDINATES (ANGSTROEM)
--------------------------------
 C      0   0   0     0.000000000000     0.00000000     0.00000000
 C      1   0   0     1.326659003604     0.00000000     0.00000000
 H      1   2   0     1.083757949810   121.54641767     0.00000000
 H      1   2   3     1.081667295810   121.63238404   180.00222702
 H      2   1   3     1.086358210294   118.71899595   179.99785435
 C      2   1   3     1.496524703138   125.32774705     0.00000000
 H      6   2   1     1.093296572950   111.08188152   120.83707184
 H      6   2   1     1.093299194981   111.08112755   239.17603568
 H      6   2   1     1.090074139798   111.55433959     0.00000000

---------------------------
INTERNAL COORDINATES (A.U.)
---------------------------
 C      0   0   0     0.000000000000     0.00000000     0.00000000
 C      1   0   0     2.507022189912     0.00000000     0.00000000
 H      1   2   0     2.048005720601   121.54641767     0.00000000
 H      1   2   3     2.044054957101   121.63238404   180.00222702
 H      2   1   3     2.052919500792   118.71899595   179.99785435
 C      2   1   3     2.828021841578   125.32774705     0.00000000
 H      6   2   1     2.066031106031   111.08188152   120.83707184
 H      6   2   1     2.066036060951   111.08112755   239.17603568
 H      6   2   1     2.059941589889   111.55433959     0.00000000

---------------------
BASIS SET INFORMATION
---------------------
There are 2 groups of distinct atoms

 Group   1 Type C   : 18s5p2d1f contracted to 4s3p2d1f pattern {8811/311/11/1}
 Group   2 Type H   : 5s2p1d contracted to 3s2p1d pattern {311/11/1}

Atom   0C    basis set group =>   1
Atom   1C    basis set group =>   1
Atom   2H    basis set group =>   2
Atom   3H    basis set group =>   2
Atom   4H    basis set group =>   2
Atom   5C    basis set group =>   1
Atom   6H    basis set group =>   2
Atom   7H    basis set group =>   2
Atom   8H    basis set group =>   2
---------------------------------
AUXILIARY/J BASIS SET INFORMATION
---------------------------------
There are 2 groups of distinct atoms

 Group   1 Type C   : 12s5p4d2f1g contracted to 6s4p3d1f1g pattern {711111/2111/211/2/1}
 Group   2 Type H   : 5s2p1d contracted to 3s1p1d pattern {311/2/1}

Atom   0C    basis set group =>   1
Atom   1C    basis set group =>   1
Atom   2H    basis set group =>   2
Atom   3H    basis set group =>   2
Atom   4H    basis set group =>   2
Atom   5C    basis set group =>   1
Atom   6H    basis set group =>   2
Atom   7H    basis set group =>   2
Atom   8H    basis set group =>   2
------------------------------------------------------------------------------
                             ORCA STARTUP CALCULATIONS
                           -- RI-GTO INTEGRALS CHOSEN --
------------------------------------------------------------------------------
------------------------------------------------------------------------------
                   ___                                                        
                  /   \      - P O W E R E D   B Y -                         
                 /     \                                                     
                 |  |  |   _    _      __       _____    __    __             
                 |  |  |  | |  | |    /  \     |  _  \  |  |  /  |          
                  \  \/   | |  | |   /    \    | | | |  |  | /  /          
                 / \  \   | |__| |  /  /\  \   | |_| |  |  |/  /          
                |  |  |   |  __  | /  /__\  \  |    /   |      \           
                |  |  |   | |  | | |   __   |  |    \   |  |\   \          
                \     /   | |  | | |  |  |  |  | |\  \  |  | \   \       
                 \___/    |_|  |_| |__|  |__|  |_| \__\ |__|  \__/        
                                                                              
                      - O R C A' S   B I G   F R I E N D -                    
                                      &                                       
                       - I N T E G R A L  F E E D E R -                       
                                                                              
 v1 FN, 2020, v2 2021, v3 2022-2024                                           
------------------------------------------------------------------------------


----------------------
SHARK INTEGRAL PACKAGE
----------------------

Number of atoms                             ...      9
Number of basis functions                   ...    192
Number of shells                            ...     84
Maximum angular momentum                    ...      3
Integral batch strategy                     ... SHARK/LIBINT Hybrid
RI-J (if used) integral strategy            ... SPLIT-RIJ (Revised 2003 algorithm where possible)
Printlevel                                  ...      1
Contraction scheme used                     ... PARTIAL GENERAL contraction
Prescreening option                         ... SCHWARTZ
   Thresh                                   ... 2.500e-11
   Tcut                                     ... 2.500e-12
   Tpresel                                  ... 2.500e-12 
Coulomb Range Separation                    ... NOT USED
Exchange Range Separation                   ... NOT USED
Multipole approximations                    ... NOT USED
Finite Nucleus Model                        ... NOT USED
CABS basis                                  ... NOT available
Auxiliary Coulomb fitting basis             ... AVAILABLE
   # of basis functions in Aux-J            ...    213
   # of shells in Aux-J                     ...     75
   Maximum angular momentum in Aux-J        ...      4
Auxiliary J/K fitting basis                 ... NOT available
Auxiliary Correlation fitting basis         ... NOT available
Auxiliary 'external' fitting basis          ... NOT available

Checking pre-screening integrals            ... done (  0.0 sec) Dimension = 84
Save PGC pre-screening integrals            ... done (  0.0 sec) Dimension = 84
Calculate PGC overlap integrals             ... done (  0.0 sec) Dimension = 66
Calculating pre-screening integrals (ORCA)  ... done (  0.1 sec) Dimension = 66
Shell pair information
Shell pair cut-off parameter TPreSel        ...   2.5e-12
Total number of shell pairs                 ...      3570
Shell pairs after pre-screening             ...      3330
Total number of primitive shell pairs       ...      5280
Primitive shell pairs kept                  ...      4531
          la=0 lb=0:   1014 shell pairs
          la=1 lb=0:    965 shell pairs
          la=1 lb=1:    226 shell pairs
          la=2 lb=0:    550 shell pairs
          la=2 lb=1:    248 shell pairs
          la=2 lb=2:     78 shell pairs
          la=3 lb=0:    144 shell pairs
          la=3 lb=1:     63 shell pairs
          la=3 lb=2:     36 shell pairs
          la=3 lb=3:      6 shell pairs

Checking whether 4 symmetric matrices of dimension 192 fit in memory
:Max Core in MB      =   4096.00
 MB in use           =      6.86
 MB left             =   4089.14
 MB needed           =      0.57
 Data fit in memory  = YES
Calculating RI/J V-Matrix + Cholesky decomp.... done (  0.2 sec)
Calculating Nuclear repulsion               ... done (  0.0 sec) ENN=     70.894092907593 Eh

Diagonalization of the overlap matrix:
Smallest eigenvalue                        ... 5.030e-04
Time for diagonalization                   ...    0.003 sec
Threshold for overlap eigenvalues          ... 1.000e-07
Number of eigenvalues below threshold      ... 0
Time for construction of square roots      ...    0.002 sec
Total time needed                          ...    0.005 sec

-------------------
DFT GRID GENERATION
-------------------

General Integration Accuracy     IntAcc      ... 4.388
Radial Grid Type                 RadialGrid  ... OptM3 with GC (2021)
Angular Grid (max. ang.)         AngularGrid ... 4 (Lebedev-302)
Angular grid pruning method      GridPruning ... 4 (adaptive)
Weight generation scheme         WeightScheme... mBecke (2022)
Basis function cutoff            BFCut       ... 1.0000e-11
Integration weight cutoff        WCut        ... 1.0000e-14
Partially contracted basis set               ... off
Rotationally invariant grid construction     ... off
Angular grids for H and He will be reduced by one unit

Total number of grid points                  ...    37713
Total number of batches                      ...      594
Average number of points per batch           ...       63
Average number of grid points per atom       ...     4190

---------------------
SHARK GRID GENERATION
---------------------

General Integration Accuracy     IntAcc      ... 4.388
Radial Grid Type                 RadialGrid  ... OptM3 with GC (2021)
Angular Grid (max. ang.)         AngularGrid ... 4 (Lebedev-302)
Angular grid pruning method      GridPruning ... 4 (adaptive)
Weight generation scheme         WeightScheme... mBecke (2022)
Basis function cutoff            BFCut       ... 1.0000e-11
Integration weight cutoff        WCut        ... 1.0000e-14
Partially contracted basis set               ... off
Rotationally invariant grid construction     ... off
Angular grids for H and He will be reduced by one unit
Steep s-basis detected: some atoms will have their radial
                        grid points doubled.

Total number of grid points                  ...    56138
Total number of batches                      ...      882
Average number of points per batch           ...       63
Average number of grid points per atom       ...     6238

--------------------
COSX GRID GENERATION
--------------------

GRIDX 1
-------
General Integration Accuracy     IntAcc      ... 3.816
Radial Grid Type                 RadialGrid  ... OptM3 with GC (2021)
Angular Grid (max. ang.)         AngularGrid ... 1 (Lebedev-50)
Angular grid pruning method      GridPruning ... 4 (adaptive)
Weight generation scheme         WeightScheme... mBecke (2022)
Basis function cutoff            BFCut       ... 1.0000e-11
Integration weight cutoff        WCut        ... 1.0000e-14
Partially contracted basis set               ... on
Rotationally invariant grid construction     ... off
Angular grids for H and He will be reduced by one unit

Total number of grid points                  ...     4874
Total number of batches                      ...       43
Average number of points per batch           ...      113
Average number of grid points per atom       ...      542
UseSFitting                                  ... on

GRIDX 2
-------
General Integration Accuracy     IntAcc      ... 4.020
Radial Grid Type                 RadialGrid  ... OptM3 with GC (2021)
Angular Grid (max. ang.)         AngularGrid ... 2 (Lebedev-110)
Angular grid pruning method      GridPruning ... 4 (adaptive)
Weight generation scheme         WeightScheme... mBecke (2022)
Basis function cutoff            BFCut       ... 1.0000e-11
Integration weight cutoff        WCut        ... 1.0000e-14
Partially contracted basis set               ... on
Rotationally invariant grid construction     ... off
Angular grids for H and He will be reduced by one unit

Total number of grid points                  ...    10214
Total number of batches                      ...       85
Average number of points per batch           ...      120
Average number of grid points per atom       ...     1135
UseSFitting                                  ... on

GRIDX 3
-------
General Integration Accuracy     IntAcc      ... 4.338
Radial Grid Type                 RadialGrid  ... OptM3 with GC (2021)
Angular Grid (max. ang.)         AngularGrid ... 3 (Lebedev-194)
Angular grid pruning method      GridPruning ... 4 (adaptive)
Weight generation scheme         WeightScheme... mBecke (2022)
Basis function cutoff            BFCut       ... 1.0000e-11
Integration weight cutoff        WCut        ... 1.0000e-14
Partially contracted basis set               ... on
Rotationally invariant grid construction     ... off
Angular grids for H and He will be reduced by one unit

Total number of grid points                  ...    22432
Total number of batches                      ...      180
Average number of points per batch           ...      124
Average number of grid points per atom       ...     2492
UseSFitting                                  ... on
Grids setup in   1.1 sec
Initializing property integral containers    ... done (  0.0 sec)

SHARK setup successfully completed in   1.8 seconds

Maximum memory used throughout the entire STARTUP-calculation: 27.3 MB
-------------------------------------------------------------------------------
                                 ORCA GUESS
                   Start orbitals & Density for SCF / CASSCF
-------------------------------------------------------------------------------

------------
SCF SETTINGS
------------
Hamiltonian:
 Density Functional     Method          .... DFT(GTOs)
 Exchange Functional    Exchange        .... B88
   X-Alpha parameter    XAlpha          ....  0.666667
   Becke's b parameter  XBeta           ....  0.004200
 Correlation Functional Correlation     .... LYP
 LDA part of GGA corr.  LDAOpt          .... VWN-5
 Gradients option       PostSCFGGA      .... off
 Hybrid DFT is turned on
   Fraction HF Exchange ScalHFX         ....  0.200000
   Scaling of DF-GGA-X  ScalDFX         ....  0.720000
   Scaling of DF-GGA-C  ScalDFC         ....  0.810000
   Scaling of DF-LDA-C  ScalLDAC        ....  1.000000
   Perturbative correction              ....  0.000000
   NL short-range parameter             ....  4.800000
 RI-approximation to the Coulomb term is turned on
   Number of AuxJ basis functions       .... 213
   RIJ-COSX (HFX calculated with COS-X)).... on


General Settings:
 Integral files         IntName         .... opt
 Hartree-Fock type      HFTyp           .... RHF
 Total Charge           Charge          ....    0
 Multiplicity           Mult            ....    1
 Number of Electrons    NEL             ....   24
 Basis Dimension        Dim             ....  174
 Nuclear Repulsion      ENuc            ....     70.8940929076 Eh

Convergence Acceleration:
 AO-DIIS                CNVDIIS         .... on
   Start iteration      DIISMaxIt       ....    12
   Startup error        DIISStart       ....  0.200000
   # of expansion vecs  DIISMaxEq       ....     5
   Bias factor          DIISBfac        ....   1.050
   Max. coefficient     DIISMaxC        ....  10.000
 MO-DIIS                CNVKDIIS        .... off
 Trust-Rad. Augm. Hess. CNVTRAH         .... auto
   Auto Start mean grad. ratio tolernc. ....  1.125000
   Auto Start start iteration           ....    50
   Auto Start num. interpolation iter.  ....    10
   Max. Number of Micro iterations      ....    24
   Max. Number of Macro iterations      .... Maxiter - #DIIS iter
   Number of Davidson start vectors     ....     2
   Converg. threshold    (grad. norm)   ....   1.000e-05
   Grad. Scal. Fac. for Micro threshold ....   0.100
   Minimum threshold for Micro iter.    ....   1.000e-02
   NR start threshold (gradient norm)   ....   1.000e-04
   Initial trust radius                 ....   0.400
   Minimum AH scaling param. (alpha)    ....   1.000
   Maximum AH scaling param. (alpha)    .... 1000.000
   Quad. conv. algorithm                .... NR
   White noise on init. David. guess    .... on
   Maximum white noise                  ....   0.010
   Pseudo random numbers                .... off
   Inactive MOs                         .... canonical
   Orbital update algorithm             .... Taylor
   Preconditioner                       .... Diag
   Full preconditioner red. dimension   ....   250
 SOSCF                 CNVSOSCF           .... on
   Start iteration     SOSCFMaxIt         ....   150
   Startup grad/error  SOSCFStart         ....  0.003300
   Hessian update      SOSCFHessUp        .... L-BFGS
   Autom. constraints  SOSCFAutoConstrain .... off
 Level Shifting         CNVShift        .... on
   Level shift para.    LevelShift      ....    0.2500
   Turn off err/grad.   ShiftErr        ....    0.0010
 Zerner damping         CNVZerner       .... off
 Static damping         CNVDamp         .... on
   Fraction old density DampFac         ....    0.7000
   Max. Damping (<1)    DampMax         ....    0.9800
   Min. Damping (>=0)   DampMin         ....    0.0000
   Turn off err/grad.   DampErr         ....    0.1000

SCF Procedure:
 Maximum # iterations   MaxIter         ....   125
 SCF integral mode      SCFMode         .... Direct
   Integral package                     .... SHARK and LIBINT hybrid scheme
 Reset frequency        DirectResetFreq ....    20
 Integral Threshold     Thresh          ....  2.500e-11 Eh
 Primitive CutOff       TCut            ....  2.500e-12 Eh

Convergence Tolerance:
 Convergence Check Mode ConvCheckMode   .... Total+1el-Energy
 Convergence forced     ConvForced      .... 0
 Energy Change          TolE            ....  1.000e-08 Eh
 1-El. energy change                    ....  1.000e-05 Eh
 Orbital Gradient       TolG            ....  1.000e-05
 Orbital Rotation angle TolX            ....  1.000e-05
 DIIS Error             TolErr          ....  5.000e-07

------------------------------
INITIAL GUESS: MODEL POTENTIAL
------------------------------
Loading Hartree-Fock densities                     ... done
Calculating cut-offs                               ... done
Initializing the effective Hamiltonian             ... done
Setting up the integral package (SHARK)            ... done
Starting the Coulomb interaction                   ... done (   0.1 sec)
Making the grid                                    ... done (   0.1 sec)
Mapping shells                                     ... done
Starting the XC term evaluation                    ... done (   0.1 sec)
  promolecular density results
     # of electrons  =     23.996594808
     EX              =    -17.170487665
     EC              =     -0.748421660
     EX+EC           =    -17.918909326
Transforming the Hamiltonian                       ... done (   0.0 sec)
Diagonalizing the Hamiltonian                      ... done (   0.0 sec)
Back transforming the eigenvectors                 ... done (   0.0 sec)
Now organizing SCF variables                       ... done
                      ------------------
                      INITIAL GUESS DONE (   0.3 sec)
                      ------------------
             **** ENERGY FILE WAS UPDATED (opt.en.tmp) ****
Finished Guess after   0.3 sec
Maximum memory used throughout the entire GUESS-calculation: 14.0 MB

-------------------------------------------------------------------------------------------
                                      ORCA LEAN-SCF
                              memory conserving SCF solver
-------------------------------------------------------------------------------------------

----------------------------------------D-I-I-S--------------------------------------------
Iteration    Energy (Eh)           Delta-E    RMSDP     MaxDP     DIISErr   Damp  Time(sec)
-------------------------------------------------------------------------------------------
               ***  Starting incremental Fock matrix formation  ***
    1    -117.7332414113172092     0.00e+00  1.25e-03  3.03e-02  2.10e-01  0.700   2.0
    2    -117.7962818526338253    -6.30e-02  9.45e-04  1.86e-02  1.09e-01  0.700   1.1
                               ***Turning on AO-DIIS***
    3    -117.8225683250552436    -2.63e-02  3.97e-04  6.81e-03  4.11e-02  0.700   1.1
    4    -117.8374396821979246    -1.49e-02  6.31e-04  1.01e-02  2.05e-02  0.000   1.1
    5    -117.8694202579771115    -3.20e-02  1.42e-04  2.40e-03  6.90e-03  0.000   1.1
                              *** Initializing SOSCF ***
---------------------------------------S-O-S-C-F--------------------------------------
Iteration    Energy (Eh)           Delta-E    RMSDP     MaxDP     MaxGrad    Time(sec)
--------------------------------------------------------------------------------------
    6    -117.8696340764418551    -2.14e-04  5.93e-05  1.00e-03  1.68e-03     1.0
               *** Restarting incremental Fock matrix formation ***
    7    -117.8696703011534623    -3.62e-05  3.79e-05  7.53e-04  3.47e-04     1.8
    8    -117.8696691776049477     1.12e-06  1.17e-05  4.12e-04  6.41e-04     1.5
    9    -117.8696716930541584    -2.52e-06  5.17e-06  1.00e-04  4.50e-05     1.5
   10    -117.8696716894693282     3.58e-09  2.29e-06  4.17e-05  5.35e-05     1.4
                 **** Energy Check signals convergence ****

               *****************************************************
               *                     SUCCESS                       *
               *           SCF CONVERGED AFTER  10 CYCLES          *
               *****************************************************

Recomputing exchange energy using gridx3       ... done (    2.765 sec)
Old exchange energy                            :     -3.529221571 Eh
New exchange energy                            :     -3.529245917 Eh
Exchange energy change after final integration :     -0.000024346 Eh
Total energy after final integration           :   -117.869696089 Eh
             **** ENERGY FILE WAS UPDATED (opt.en.tmp) ****

----------------
TOTAL SCF ENERGY
----------------

Total Energy       :       -117.86969608886126 Eh           -3207.39749 eV

Components:
Nuclear Repulsion  :         70.89409290759318 Eh            1929.12634 eV
Electronic Energy  :       -188.76376465061821 Eh           -5136.52317 eV
One Electron Energy:       -297.23770056850475 Eh           -8088.24903 eV
Two Electron Energy:        108.47393591788655 Eh            2951.72586 eV

Virial components:
Potential Energy   :       -234.96643375775830 Eh           -6393.76172 eV
Kinetic Energy     :        117.09673766889703 Eh            3186.36422 eV
Virial Ratio       :          2.00660102437824

DFT components:
N(Alpha)           :       11.999990461851 electrons
N(Beta)            :       11.999990461851 electrons
N(Total)           :       23.999980923702 electrons
E(X)               :      -13.994414267371 Eh       
E(C)               :       -0.896561885730 Eh       
E(XC)              :      -14.890976153101 Eh       

---------------
SCF CONVERGENCE
---------------

  Last Energy change         ...   -3.5848e-09  Tolerance :   1.0000e-08
  Last MAX-Density change    ...    4.1657e-05  Tolerance :   1.0000e-07
  Last RMS-Density change    ...    2.2886e-06  Tolerance :   5.0000e-09
  Last DIIS Error            ...    1.6834e-03  Tolerance :   5.0000e-07
  Last Orbital Gradient      ...    5.3472e-05  Tolerance :   1.0000e-05
  Last Orbital Rotation      ...    4.4753e-05  Tolerance :   1.0000e-05


----------------
ORBITAL ENERGIES
----------------

  NO   OCC          E(Eh)            E(eV) 
   0   2.0000     -10.174414      -276.8599 
   1   2.0000     -10.166309      -276.6393 
   2   2.0000     -10.158295      -276.4212 
   3   2.0000      -0.786039       -21.3892 
   4   2.0000      -0.684912       -18.6374 
   5   2.0000      -0.552875       -15.0445 
   6   2.0000      -0.466792       -12.7021 
   7   2.0000      -0.421555       -11.4711 
   8   2.0000      -0.412472       -11.2239 
   9   2.0000      -0.372011       -10.1229 
  10   2.0000      -0.344975        -9.3872 
  11   2.0000      -0.258473        -7.0334 
  12   0.0000       0.013740         0.3739 
  13   0.0000       0.048840         1.3290 
  14   0.0000       0.076232         2.0744 
  15   0.0000       0.083393         2.2692 
  16   0.0000       0.113794         3.0965 
  17   0.0000       0.120081         3.2676 
  18   0.0000       0.136552         3.7158 
  19   0.0000       0.193566         5.2672 
  20   0.0000       0.253141         6.8883 
  21   0.0000       0.256385         6.9766 
  22   0.0000       0.274240         7.4625 
*Only the first 10 virtual orbitals were printed.

                    ********************************
                    * MULLIKEN POPULATION ANALYSIS *
                    ********************************

-----------------------
MULLIKEN ATOMIC CHARGES
-----------------------
   0 C :   -0.285121
   1 C :   -0.068224
   2 H :    0.105217
   3 H :    0.110979
   4 H :    0.114354
   5 C :   -0.273149
   6 H :    0.099947
   7 H :    0.099948
   8 H :    0.096048
Sum of atomic charges:    0.0000000

--------------------------------
MULLIKEN REDUCED ORBITAL CHARGES
--------------------------------
  0 C s       :     3.313238  s :     3.313238
      pz      :     1.005818  p :     2.904768
      px      :     0.937373
      py      :     0.961578
      dz2     :     0.005981  d :     0.061458
      dxz     :     0.009379
      dyz     :     0.003254
      dx2y2   :     0.029660
      dxy     :     0.013185
      f0      :     0.000903  f :     0.005657
      f+1     :     0.000413
      f-1     :     0.000357
      f+2     :     0.000237
      f-2     :     0.000648
      f+3     :     0.001742
      f-3     :     0.001356

  1 C s       :     3.215532  s :     3.215532
      pz      :     0.932721  p :     2.758390
      px      :     0.870518
      py      :     0.955150
      dz2     :     0.004478  d :     0.086504
      dxz     :     0.023844
      dyz     :     0.003818
      dx2y2   :     0.036371
      dxy     :     0.017993
      f0      :     0.001174  f :     0.007798
      f+1     :     0.000712
      f-1     :     0.000466
      f+2     :     0.000465
      f-2     :     0.000864
      f+3     :     0.002555
      f-3     :     0.001563

  2 H s       :     0.864464  s :     0.864464
      pz      :     0.011982  p :     0.027824
      px      :     0.008937
      py      :     0.006905
      dz2     :     0.000145  d :     0.002495
      dxz     :     0.000015
      dyz     :     0.000857
      dx2y2   :     0.000406
      dxy     :     0.001072

  3 H s       :     0.858219  s :     0.858219
      pz      :     0.012236  p :     0.028399
      px      :     0.006652
      py      :     0.009511
      dz2     :     0.000125  d :     0.002403
      dxz     :     0.000758
      dyz     :     0.000102
      dx2y2   :     0.000714
      dxy     :     0.000705

  4 H s       :     0.852852  s :     0.852852
      pz      :     0.011736  p :     0.030114
      px      :     0.010594
      py      :     0.007783
      dz2     :     0.000131  d :     0.002679
      dxz     :     0.000023
      dyz     :     0.000808
      dx2y2   :     0.000368
      dxy     :     0.001350

  5 C s       :     3.272922  s :     3.272922
      pz      :     1.002716  p :     2.936607
      px      :     0.928793
      py      :     1.005098
      dz2     :     0.007946  d :     0.059762
      dxz     :     0.020923
      dyz     :     0.003608
      dx2y2   :     0.017118
      dxy     :     0.010167
      f0      :     0.000299  f :     0.003858
      f+1     :     0.000877
      f-1     :     0.000407
      f+2     :     0.000323
      f-2     :     0.000065
      f+3     :     0.000724
      f-3     :     0.001162

  6 H s       :     0.867510  s :     0.867510
      pz      :     0.009087  p :     0.030036
      px      :     0.011229
      py      :     0.009720
      dz2     :     0.000761  d :     0.002507
      dxz     :     0.000568
      dyz     :     0.000494
      dx2y2   :     0.000434
      dxy     :     0.000250

  7 H s       :     0.867510  s :     0.867510
      pz      :     0.009086  p :     0.030035
      px      :     0.011229
      py      :     0.009720
      dz2     :     0.000762  d :     0.002507
      dxz     :     0.000568
      dyz     :     0.000494
      dx2y2   :     0.000433
      dxy     :     0.000250

  8 H s       :     0.871807  s :     0.871807
      pz      :     0.010617  p :     0.029639
      px      :     0.009760
      py      :     0.009261
      dz2     :     0.000162  d :     0.002506
      dxz     :     0.000032
      dyz     :     0.000810
      dx2y2   :     0.000426
      dxy     :     0.001077



                     *******************************
                     * LOEWDIN POPULATION ANALYSIS *
                     *******************************

----------------------
LOEWDIN ATOMIC CHARGES
----------------------
   0 C :    0.075616
   1 C :    0.012789
   2 H :   -0.045629
   3 H :   -0.043970
   4 H :   -0.033278
   5 C :    0.095808
   6 H :   -0.020052
   7 H :   -0.020050
   8 H :   -0.021233

-------------------------------
LOEWDIN REDUCED ORBITAL CHARGES
-------------------------------
  0 C s       :     2.726836  s :     2.726836
      pz      :     0.884733  p :     2.897733
      px      :     1.019414
      py      :     0.993587
      dz2     :     0.019046  d :     0.271266
      dxz     :     0.027350
      dyz     :     0.009630
      dx2y2   :     0.131014
      dxy     :     0.084225
      f0      :     0.000843  f :     0.028549
      f+1     :     0.003221
      f-1     :     0.002497
      f+2     :     0.001187
      f-2     :     0.003714
      f+3     :     0.009355
      f-3     :     0.007732

  1 C s       :     2.720154  s :     2.720154
      pz      :     0.827587  p :     2.819149
      px      :     1.003372
      py      :     0.988190
      dz2     :     0.024059  d :     0.407457
      dxz     :     0.087833
      dyz     :     0.012765
      dx2y2   :     0.173103
      dxy     :     0.109697
      f0      :     0.002263  f :     0.040451
      f+1     :     0.003722
      f-1     :     0.002741
      f+2     :     0.002477
      f-2     :     0.005945
      f+3     :     0.014926
      f-3     :     0.008376

  2 H s       :     0.857364  s :     0.857364
      pz      :     0.045465  p :     0.159551
      px      :     0.035759
      py      :     0.078327
      dz2     :     0.002556  d :     0.028713
      dxz     :     0.000035
      dyz     :     0.008576
      dx2y2   :     0.008191
      dxy     :     0.009356

  3 H s       :     0.854542  s :     0.854542
      pz      :     0.046471  p :     0.160743
      px      :     0.066715
      py      :     0.047557
      dz2     :     0.002572  d :     0.028684
      dxz     :     0.007088
      dyz     :     0.001564
      dx2y2   :     0.008897
      dxy     :     0.008563

  4 H s       :     0.846323  s :     0.846323
      pz      :     0.041348  p :     0.158092
      px      :     0.037381
      py      :     0.079363
      dz2     :     0.002594  d :     0.028864
      dxz     :     0.000025
      dyz     :     0.008117
      dx2y2   :     0.008541
      dxy     :     0.009586

  5 C s       :     2.661600  s :     2.661600
      pz      :     0.989097  p :     2.919643
      px      :     0.948181
      py      :     0.982365
      dz2     :     0.044895  d :     0.292537
      dxz     :     0.092235
      dyz     :     0.017400
      dx2y2   :     0.086775
      dxy     :     0.051232
      f0      :     0.001924  f :     0.030412
      f+1     :     0.005371
      f-1     :     0.004419
      f+2     :     0.002694
      f-2     :     0.004473
      f+3     :     0.005066
      f-3     :     0.006464

  6 H s       :     0.834879  s :     0.834879
      pz      :     0.061677  p :     0.156117
      px      :     0.050744
      py      :     0.043697
      dz2     :     0.008981  d :     0.029057
      dxz     :     0.007421
      dyz     :     0.005958
      dx2y2   :     0.003643
      dxy     :     0.003055

  7 H s       :     0.834877  s :     0.834877
      pz      :     0.061681  p :     0.156117
      px      :     0.050741
      py      :     0.043695
      dz2     :     0.008981  d :     0.029057
      dxz     :     0.007422
      dyz     :     0.005959
      dx2y2   :     0.003641
      dxy     :     0.003054

  8 H s       :     0.838995  s :     0.838995
      pz      :     0.041519  p :     0.152806
      px      :     0.038061
      py      :     0.073227
      dz2     :     0.002522  d :     0.029432
      dxz     :     0.000160
      dyz     :     0.009519
      dx2y2   :     0.007780
      dxy     :     0.009451



                      *****************************
                      * MAYER POPULATION ANALYSIS *
                      *****************************

  NA   - Mulliken gross atomic population
  ZA   - Total nuclear charge
  QA   - Mulliken gross atomic charge
  VA   - Mayer's total valence
  BVA  - Mayer's bonded valence
  FA   - Mayer's free valence

  ATOM       NA         ZA         QA         VA         BVA        FA
  0 C      6.2851     6.0000    -0.2851     3.8632     3.8632    -0.0000
  1 C      6.0682     6.0000    -0.0682     3.8274     3.8274    -0.0000
  2 H      0.8948     1.0000     0.1052     0.9894     0.9894     0.0000
  3 H      0.8890     1.0000     0.1110     0.9869     0.9869    -0.0000
  4 H      0.8856     1.0000     0.1144     0.9878     0.9878     0.0000
  5 C      6.2731     6.0000    -0.2731     3.8837     3.8837     0.0000
  6 H      0.9001     1.0000     0.0999     0.9820     0.9820     0.0000
  7 H      0.9001     1.0000     0.0999     0.9820     0.9820     0.0000
  8 H      0.9040     1.0000     0.0960     0.9921     0.9921     0.0000

  Mayer bond orders larger than 0.100000
B(  0-C ,  1-C ) :   1.8728 B(  0-C ,  2-H ) :   0.9595 B(  0-C ,  3-H ) :   0.9690 
B(  1-C ,  4-H ) :   0.9598 B(  1-C ,  5-C ) :   0.9704 B(  5-C ,  6-H ) :   0.9604 
B(  5-C ,  7-H ) :   0.9604 B(  5-C ,  8-H ) :   0.9721 

-------
TIMINGS
-------

Total SCF time: 0 days 0 hours 0 min 17 sec 

Total time                  ....      17.825 sec
Sum of individual times     ....      16.437 sec  ( 92.2%)

SCF preparation             ....       0.145 sec  (  0.8%)
Fock matrix formation       ....      16.158 sec  ( 90.7%)
  Startup                   ....       0.002 sec  (  0.0% of F)
  Split-RI-J                ....       0.963 sec  (  6.0% of F)
  Chain of spheres X        ....      12.684 sec  ( 78.5% of F)
  XC integration            ....       3.832 sec  ( 23.7% of F)
    Basis function eval.    ....       1.574 sec  ( 41.1% of XC)
    Density eval.           ....       0.734 sec  ( 19.2% of XC)
    XC-Functional eval.     ....       0.261 sec  (  6.8% of XC)
    XC-Potential eval.      ....       1.192 sec  ( 31.1% of XC)
Diagonalization             ....       0.000 sec  (  0.0%)
Density matrix formation    ....       0.009 sec  (  0.1%)
Total Energy calculation    ....       0.002 sec  (  0.0%)
Population analysis         ....       0.005 sec  (  0.0%)
Orbital Transformation      ....       0.010 sec  (  0.1%)
Orbital Orthonormalization  ....       0.000 sec  (  0.0%)
DIIS solution               ....       0.089 sec  (  0.5%)
SOSCF solution              ....       0.018 sec  (  0.1%)
Finished LeanSCF after  17.8 sec

Maximum memory used throughout the entire LEANSCF-calculation: 18.1 MB

-------------------------   --------------------
FINAL SINGLE POINT ENERGY      -117.869696088861
-------------------------   --------------------

------------------------------------------------------------------------------
                         ORCA SCF GRADIENT CALCULATION
------------------------------------------------------------------------------

Nuc. rep. gradient        (SHARK) ... done (  0.0 sec)
HCore & Overlap gradient  (SHARK) ... done (  0.1 sec)
Split-RIJ-J gradient      (SHARK) ... done (  0.9 sec)
done ( 11.9 sec)
XC gradient                       ... done (  1.4 sec)

------------------
CARTESIAN GRADIENT
------------------

   1   C   :    0.000095205    0.000011078    0.000002143
   2   C   :   -0.000202357    0.000135517    0.000002118
   3   H   :   -0.000075790   -0.000199256   -0.000000866
   4   H   :   -0.000196395    0.000060343   -0.000000871
   5   H   :    0.000018841    0.000193331   -0.000001418
   6   C   :    0.000306359   -0.000159223   -0.000002494
   7   H   :    0.000030987    0.000072129    0.000159084
   8   H   :    0.000031518    0.000072739   -0.000157993
   9   H   :   -0.000008368   -0.000186659    0.000000298

Difference to translation invariance:
           :    0.0000000000    0.0000000000    0.0000000000

Difference to rotation invariance:
           :    0.0000000443    0.0000000377    0.0000468839

Norm of the Cartesian gradient     ...    0.0006408955
RMS gradient                       ...    0.0001233404
MAX gradient                       ...    0.0003063593

-------
TIMINGS
-------

Total SCF gradient time     ....       14.303 sec

Densities                   ....       0.000 sec  (  0.0%)
One electron gradient       ....       0.079 sec  (  0.6%)
RI-J Coulomb gradient       ....       0.868 sec  (  6.1%)
COSX gradient               ....      11.912 sec  ( 83.3%)
XC gradient                 ....       1.444 sec  ( 10.1%)

Maximum memory used throughout the entire SCFGRAD-calculation: 22.9 MB
------------------------------------------------------------------------------
                         ORCA GEOMETRY RELAXATION STEP
------------------------------------------------------------------------------

Reading the OPT-File                    .... done
Getting information on internals        .... done
Copying old internal coords+grads       .... done
Making the new internal coordinates     .... (2022 redundants) done
Validating the new internal coordinates .... (2022 redundants) done
Calculating the B-matrix                .... done
Calculating the G,G- and P matrices     .... done
Transforming gradient to internals      .... done
Projecting the internal gradient        .... done
Number of atoms                         ....   9
Number of internal coordinates          ....  29
Current Energy                          ....  -117.869696089 Eh
Current gradient norm                   ....     0.000640896 Eh/bohr
Maximum allowed component of the step   ....  0.300
Current trust radius                    ....  0.300
Evaluating the initial hessian          ....  (Almloef) done
Projecting the Hessian                  .... done
Forming the augmented Hessian           .... done
Diagonalizing the augmented Hessian     .... done
Last element of RFO vector              ....  0.999998536
Lowest eigenvalues of augmented Hessian:
 -0.000001134  0.013192644  0.027883493  0.044787775  0.044787775
Length of the computed step             ....  0.001711063
The final length of the internal step   ....  0.001711063
Converting the step to Cartesian space:
 Initial RMS(Int)=    0.0003177364
Transforming coordinates:
 Iter   0:  RMS(Cart)=    0.0004741492 RMS(Int)=    1.1667523607
done
Storing new coordinates                 .... done

                                .--------------------.
          ----------------------|Geometry convergence|-------------------------
          Item                value                   Tolerance       Converged
          ---------------------------------------------------------------------
          RMS gradient        0.0001254969            0.0001000000      NO
          MAX gradient        0.0004097301            0.0003000000      NO
          RMS step            0.0003177364            0.0020000000      YES
          MAX step            0.0009698654            0.0040000000      YES
          -------------------------------------------------------------------------
          ........................................................
          Max(Bonds)      0.0005      Max(Angles)    0.02
          Max(Dihed)        0.00      Max(Improp)    0.00
          ---------------------------------------------------------------------

       The step convergence is overachieved with 
       reasonable convergence on the gradient
       Convergence will therefore be signaled now


                    ***********************HURRAY********************
                    ***        THE OPTIMIZATION HAS CONVERGED     ***
                    *************************************************


    ---------------------------------------------------------------------------
                         Redundant Internal Coordinates

                          --- Optimized Parameters ---  
                            (Angstroem and degrees)

        Definition                    OldVal   dE/dq     Step     FinalVal
    ----------------------------------------------------------------------------
     1. B(C   1,C   0)                1.3267 -0.000219  0.0001    1.3268   
     2. B(H   2,C   0)                1.0838 -0.000202  0.0003    1.0840   
     3. B(H   3,C   0)                1.0817 -0.000201  0.0003    1.0820   
     4. B(H   4,C   1)                1.0864 -0.000192  0.0003    1.0866   
     5. B(C   5,C   1)                1.4965 -0.000410  0.0005    1.4970   
     6. B(H   6,C   5)                1.0933 -0.000165  0.0002    1.0935   
     7. B(H   7,C   5)                1.0933 -0.000165  0.0002    1.0935   
     8. B(H   8,C   5)                1.0901 -0.000186  0.0003    1.0903   
     9. A(C   1,C   0,H   2)          121.55 -0.000068    0.01    121.56   
    10. A(C   1,C   0,H   3)          121.63 -0.000008    0.00    121.63   
    11. A(H   2,C   0,H   3)          116.82  0.000076   -0.01    116.81   
    12. A(H   4,C   1,C   5)          115.95  0.000030   -0.00    115.95   
    13. A(C   0,C   1,C   5)          125.33 -0.000013    0.00    125.33   
    14. A(C   0,C   1,H   4)          118.72 -0.000017    0.00    118.72   
    15. A(C   1,C   5,H   6)          111.08  0.000082   -0.02    111.07   
    16. A(H   7,C   5,H   8)          108.22 -0.000030    0.01    108.22   
    17. A(H   6,C   5,H   8)          108.22 -0.000030    0.01    108.22   
    18. A(C   1,C   5,H   8)          111.55 -0.000035    0.01    111.56   
    19. A(H   6,C   5,H   7)          106.49 -0.000074    0.01    106.50   
    20. A(C   1,C   5,H   7)          111.08  0.000081   -0.01    111.07   
    21. D(C   5,C   1,C   0,H   3)   -180.00  0.000001   -0.00   -180.00   
    22. D(C   5,C   1,C   0,H   2)     -0.00 -0.000000    0.00     -0.00   
    23. D(H   4,C   1,C   0,H   2)    180.00 -0.000001    0.00    180.00   
    24. D(H   4,C   1,C   0,H   3)      0.00  0.000000   -0.00     -0.00   
    25. D(H   6,C   5,C   1,H   4)    -59.16 -0.000005   -0.00    -59.16   
    26. D(H   7,C   5,C   1,C   0)   -120.82  0.000006   -0.00   -120.83   
    27. D(H   6,C   5,C   1,C   0)    120.84 -0.000006    0.00    120.84   
    28. D(H   8,C   5,C   1,C   0)      0.01 -0.000000   -0.00      0.00   
    29. D(H   7,C   5,C   1,H   4)     59.18  0.000007   -0.00     59.17   
    ----------------------------------------------------------------------------

Geometry step timings:
Preparation and reading OPT file:      0.000 s ( 2.767 %)
Internal coordinates            :      0.000 s ( 3.218 %)
B/P matrices and projection     :      0.000 s (15.380 %)
Hessian update/contruction      :      0.000 s (25.032 %)
Making the step                 :      0.000 s (19.176 %)
Converting the step to Cartesian:      0.000 s ( 4.311 %)
Storing new data                :      0.000 s ( 3.668 %)
Checking convergence            :      0.000 s ( 5.985 %)
Final printing                  :      0.000 s (19.562 %)
Total time                      :      0.002 s
                 *******************************************************
                 *** FINAL ENERGY EVALUATION AT THE STATIONARY POINT ***
                 ***               (AFTER    1 CYCLES)               ***
                 *******************************************************
---------------------------------
CARTESIAN COORDINATES (ANGSTROEM)
---------------------------------
  C      1.278120    0.219864   -0.000010
  C      0.134191   -0.452327   -0.000005
  H      1.299287    1.303705   -0.000027
  H      2.234080   -0.286854   -0.000002
  H      0.166754   -1.538476    0.000008
  C     -1.230955    0.162084   -0.000002
  H     -1.804094   -0.153603   -0.876180
  H     -1.804013   -0.153451    0.876286
  H     -1.180158    1.251247   -0.000092

----------------------------
CARTESIAN COORDINATES (A.U.)
----------------------------
  NO LB      ZA    FRAG     MASS         X           Y           Z
   0 C     6.0000    0    12.011    2.415296    0.415482   -0.000019
   1 C     6.0000    0    12.011    0.253583   -0.854774   -0.000009
   2 H     1.0000    0     1.008    2.455296    2.463646   -0.000051
   3 H     1.0000    0     1.008    4.221800   -0.542076   -0.000003
   4 H     1.0000    0     1.008    0.315119   -2.907298    0.000014
   5 C     6.0000    0    12.011   -2.326167    0.306295   -0.000004
   6 H     1.0000    0     1.008   -3.409243   -0.290268   -1.655740
   7 H     1.0000    0     1.008   -3.409090   -0.289980    1.655940
   8 H     1.0000    0     1.008   -2.230175    2.364515   -0.000173

--------------------------------
INTERNAL COORDINATES (ANGSTROEM)
--------------------------------
 C      0   0   0     0.000000000000     0.00000000     0.00000000
 C      1   0   0     1.326806015667     0.00000000     0.00000000
 H      1   2   0     1.084048238032   121.55797883     0.00000000
 H      1   2   3     1.081953683045   121.63450960   180.00028260
 H      2   1   3     1.086637258850   118.72190143   179.99968086
 C      2   1   3     1.497037933819   125.32976289     0.00000000
 H      6   2   1     1.093541874271   111.06671438   120.83809770
 H      6   2   1     1.093543882366   111.06619266   239.17293073
 H      6   2   1     1.090347044555   111.56082475     0.00000000

---------------------------
INTERNAL COORDINATES (A.U.)
---------------------------
 C      0   0   0     0.000000000000     0.00000000     0.00000000
 C      1   0   0     2.507300002449     0.00000000     0.00000000
 H      1   2   0     2.048554285841   121.55797883     0.00000000
 H      1   2   3     2.044596150543   121.63450960   180.00028260
 H      2   1   3     2.053446826142   118.72190143   179.99968086
 C      2   1   3     2.828991707010   125.32976289     0.00000000
 H      6   2   1     2.066494658346   111.06671438   120.83809770
 H      6   2   1     2.066498453097   111.06619266   239.17293073
 H      6   2   1     2.060457305140   111.56082475     0.00000000

---------------------
BASIS SET INFORMATION
---------------------
There are 2 groups of distinct atoms

 Group   1 Type C   : 18s5p2d1f contracted to 4s3p2d1f pattern {8811/311/11/1}
 Group   2 Type H   : 5s2p1d contracted to 3s2p1d pattern {311/11/1}

Atom   0C    basis set group =>   1
Atom   1C    basis set group =>   1
Atom   2H    basis set group =>   2
Atom   3H    basis set group =>   2
Atom   4H    basis set group =>   2
Atom   5C    basis set group =>   1
Atom   6H    basis set group =>   2
Atom   7H    basis set group =>   2
Atom   8H    basis set group =>   2
---------------------------------
AUXILIARY/J BASIS SET INFORMATION
---------------------------------
There are 2 groups of distinct atoms

 Group   1 Type C   : 12s5p4d2f1g contracted to 6s4p3d1f1g pattern {711111/2111/211/2/1}
 Group   2 Type H   : 5s2p1d contracted to 3s1p1d pattern {311/2/1}

Atom   0C    basis set group =>   1
Atom   1C    basis set group =>   1
Atom   2H    basis set group =>   2
Atom   3H    basis set group =>   2
Atom   4H    basis set group =>   2
Atom   5C    basis set group =>   1
Atom   6H    basis set group =>   2
Atom   7H    basis set group =>   2
Atom   8H    basis set group =>   2
------------------------------------------------------------------------------
                             ORCA STARTUP CALCULATIONS
                           -- RI-GTO INTEGRALS CHOSEN --
------------------------------------------------------------------------------
------------------------------------------------------------------------------
                   ___                                                        
                  /   \      - P O W E R E D   B Y -                         
                 /     \                                                     
                 |  |  |   _    _      __       _____    __    __             
                 |  |  |  | |  | |    /  \     |  _  \  |  |  /  |          
                  \  \/   | |  | |   /    \    | | | |  |  | /  /          
                 / \  \   | |__| |  /  /\  \   | |_| |  |  |/  /          
                |  |  |   |  __  | /  /__\  \  |    /   |      \           
                |  |  |   | |  | | |   __   |  |    \   |  |\   \          
                \     /   | |  | | |  |  |  |  | |\  \  |  | \   \       
                 \___/    |_|  |_| |__|  |__|  |_| \__\ |__|  \__/        
                                                                              
                      - O R C A' S   B I G   F R I E N D -                    
                                      &                                       
                       - I N T E G R A L  F E E D E R -                       
                                                                              
 v1 FN, 2020, v2 2021, v3 2022-2024                                           
------------------------------------------------------------------------------


----------------------
SHARK INTEGRAL PACKAGE
----------------------

Number of atoms                             ...      9
Number of basis functions                   ...    192
Number of shells                            ...     84
Maximum angular momentum                    ...      3
Integral batch strategy                     ... SHARK/LIBINT Hybrid
RI-J (if used) integral strategy            ... SPLIT-RIJ (Revised 2003 algorithm where possible)
Printlevel                                  ...      1
Contraction scheme used                     ... PARTIAL GENERAL contraction
Prescreening option                         ... SCHWARTZ
   Thresh                                   ... 2.500e-11
   Tcut                                     ... 2.500e-12
   Tpresel                                  ... 2.500e-12 
Coulomb Range Separation                    ... NOT USED
Exchange Range Separation                   ... NOT USED
Multipole approximations                    ... NOT USED
Finite Nucleus Model                        ... NOT USED
CABS basis                                  ... NOT available
Auxiliary Coulomb fitting basis             ... AVAILABLE
   # of basis functions in Aux-J            ...    213
   # of shells in Aux-J                     ...     75
   Maximum angular momentum in Aux-J        ...      4
Auxiliary J/K fitting basis                 ... NOT available
Auxiliary Correlation fitting basis         ... NOT available
Auxiliary 'external' fitting basis          ... NOT available

Checking pre-screening integrals            ... done (  0.0 sec) Dimension = 84
Save PGC pre-screening integrals            ... done (  0.0 sec) Dimension = 84
Calculate PGC overlap integrals             ... done (  0.0 sec) Dimension = 66
Calculating pre-screening integrals (ORCA)  ... done (  0.1 sec) Dimension = 66
Shell pair information
Shell pair cut-off parameter TPreSel        ...   2.5e-12
Total number of shell pairs                 ...      3570
Shell pairs after pre-screening             ...      3329
Total number of primitive shell pairs       ...      5280
Primitive shell pairs kept                  ...      4530
          la=0 lb=0:   1014 shell pairs
          la=1 lb=0:    965 shell pairs
          la=1 lb=1:    226 shell pairs
          la=2 lb=0:    549 shell pairs
          la=2 lb=1:    248 shell pairs
          la=2 lb=2:     78 shell pairs
          la=3 lb=0:    144 shell pairs
          la=3 lb=1:     63 shell pairs
          la=3 lb=2:     36 shell pairs
          la=3 lb=3:      6 shell pairs

Checking whether 4 symmetric matrices of dimension 192 fit in memory
:Max Core in MB      =   4096.00
 MB in use           =      7.10
 MB left             =   4088.90
 MB needed           =      0.57
 Data fit in memory  = YES
Calculating RI/J V-Matrix + Cholesky decomp.... done (  0.0 sec)
Calculating Nuclear repulsion               ... done (  0.0 sec) ENN=     70.877367178117 Eh

Diagonalization of the overlap matrix:
Smallest eigenvalue                        ... 5.034e-04
Time for diagonalization                   ...    0.003 sec
Threshold for overlap eigenvalues          ... 1.000e-07
Number of eigenvalues below threshold      ... 0
Time for construction of square roots      ...    0.001 sec
Total time needed                          ...    0.004 sec

-------------------
DFT GRID GENERATION
-------------------

General Integration Accuracy     IntAcc      ... 4.388
Radial Grid Type                 RadialGrid  ... OptM3 with GC (2021)
Angular Grid (max. ang.)         AngularGrid ... 4 (Lebedev-302)
Angular grid pruning method      GridPruning ... 4 (adaptive)
Weight generation scheme         WeightScheme... mBecke (2022)
Basis function cutoff            BFCut       ... 1.0000e-11
Integration weight cutoff        WCut        ... 1.0000e-14
Partially contracted basis set               ... off
Rotationally invariant grid construction     ... off
Angular grids for H and He will be reduced by one unit

Total number of grid points                  ...    37713
Total number of batches                      ...      594
Average number of points per batch           ...       63
Average number of grid points per atom       ...     4190

---------------------
SHARK GRID GENERATION
---------------------

General Integration Accuracy     IntAcc      ... 4.388
Radial Grid Type                 RadialGrid  ... OptM3 with GC (2021)
Angular Grid (max. ang.)         AngularGrid ... 4 (Lebedev-302)
Angular grid pruning method      GridPruning ... 4 (adaptive)
Weight generation scheme         WeightScheme... mBecke (2022)
Basis function cutoff            BFCut       ... 1.0000e-11
Integration weight cutoff        WCut        ... 1.0000e-14
Partially contracted basis set               ... off
Rotationally invariant grid construction     ... off
Angular grids for H and He will be reduced by one unit
Steep s-basis detected: some atoms will have their radial
                        grid points doubled.

Total number of grid points                  ...    56138
Total number of batches                      ...      882
Average number of points per batch           ...       63
Average number of grid points per atom       ...     6238

--------------------
COSX GRID GENERATION
--------------------

GRIDX 1
-------
General Integration Accuracy     IntAcc      ... 3.816
Radial Grid Type                 RadialGrid  ... OptM3 with GC (2021)
Angular Grid (max. ang.)         AngularGrid ... 1 (Lebedev-50)
Angular grid pruning method      GridPruning ... 4 (adaptive)
Weight generation scheme         WeightScheme... mBecke (2022)
Basis function cutoff            BFCut       ... 1.0000e-11
Integration weight cutoff        WCut        ... 1.0000e-14
Partially contracted basis set               ... on
Rotationally invariant grid construction     ... off
Angular grids for H and He will be reduced by one unit

Total number of grid points                  ...     4874
Total number of batches                      ...       43
Average number of points per batch           ...      113
Average number of grid points per atom       ...      542
UseSFitting                                  ... on

GRIDX 2
-------
General Integration Accuracy     IntAcc      ... 4.020
Radial Grid Type                 RadialGrid  ... OptM3 with GC (2021)
Angular Grid (max. ang.)         AngularGrid ... 2 (Lebedev-110)
Angular grid pruning method      GridPruning ... 4 (adaptive)
Weight generation scheme         WeightScheme... mBecke (2022)
Basis function cutoff            BFCut       ... 1.0000e-11
Integration weight cutoff        WCut        ... 1.0000e-14
Partially contracted basis set               ... on
Rotationally invariant grid construction     ... off
Angular grids for H and He will be reduced by one unit

Total number of grid points                  ...    10214
Total number of batches                      ...       85
Average number of points per batch           ...      120
Average number of grid points per atom       ...     1135
UseSFitting                                  ... on

GRIDX 3
-------
General Integration Accuracy     IntAcc      ... 4.338
Radial Grid Type                 RadialGrid  ... OptM3 with GC (2021)
Angular Grid (max. ang.)         AngularGrid ... 3 (Lebedev-194)
Angular grid pruning method      GridPruning ... 4 (adaptive)
Weight generation scheme         WeightScheme... mBecke (2022)
Basis function cutoff            BFCut       ... 1.0000e-11
Integration weight cutoff        WCut        ... 1.0000e-14
Partially contracted basis set               ... on
Rotationally invariant grid construction     ... off
Angular grids for H and He will be reduced by one unit

Total number of grid points                  ...    22432
Total number of batches                      ...      180
Average number of points per batch           ...      124
Average number of grid points per atom       ...     2492
UseSFitting                                  ... on
Grids setup in   1.0 sec
Initializing property integral containers    ... done (  0.0 sec)

SHARK setup successfully completed in   1.2 seconds

Maximum memory used throughout the entire STARTUP-calculation: 27.6 MB
-------------------------------------------------------------------------------
                                 ORCA GUESS
                   Start orbitals & Density for SCF / CASSCF
-------------------------------------------------------------------------------

------------
SCF SETTINGS
------------
Hamiltonian:
 Density Functional     Method          .... DFT(GTOs)
 Exchange Functional    Exchange        .... B88
   X-Alpha parameter    XAlpha          ....  0.666667
   Becke's b parameter  XBeta           ....  0.004200
 Correlation Functional Correlation     .... LYP
 LDA part of GGA corr.  LDAOpt          .... VWN-5
 Gradients option       PostSCFGGA      .... off
 Hybrid DFT is turned on
   Fraction HF Exchange ScalHFX         ....  0.200000
   Scaling of DF-GGA-X  ScalDFX         ....  0.720000
   Scaling of DF-GGA-C  ScalDFC         ....  0.810000
   Scaling of DF-LDA-C  ScalLDAC        ....  1.000000
   Perturbative correction              ....  0.000000
   NL short-range parameter             ....  4.800000
 RI-approximation to the Coulomb term is turned on
   Number of AuxJ basis functions       .... 213
   RIJ-COSX (HFX calculated with COS-X)).... on


General Settings:
 Integral files         IntName         .... opt
[...]
  14   0.0000       0.076197         2.0734 
  15   0.0000       0.083350         2.2681 
  16   0.0000       0.113758         3.0955 
  17   0.0000       0.120033         3.2663 
  18   0.0000       0.136467         3.7135 
  19   0.0000       0.193514         5.2658 
  20   0.0000       0.253144         6.8884 
  21   0.0000       0.256378         6.9764 
  22   0.0000       0.274221         7.4619 
*Only the first 10 virtual orbitals were printed.

                    ********************************
                    * MULLIKEN POPULATION ANALYSIS *
                    ********************************

-----------------------
MULLIKEN ATOMIC CHARGES
-----------------------
   0 C :   -0.284961
   1 C :   -0.068281
   2 H :    0.105180
   3 H :    0.110933
   4 H :    0.114271
   5 C :   -0.272983
   6 H :    0.099911
   7 H :    0.099912
   8 H :    0.096018
Sum of atomic charges:    0.0000000

--------------------------------
MULLIKEN REDUCED ORBITAL CHARGES
--------------------------------
  0 C s       :     3.313158  s :     3.313158
      pz      :     1.005825  p :     2.904685
      px      :     0.937324
      py      :     0.961536
      dz2     :     0.005979  d :     0.061462
      dxz     :     0.009375
      dyz     :     0.003253
      dx2y2   :     0.029666
      dxy     :     0.013189
      f0      :     0.000903  f :     0.005656
      f+1     :     0.000413
      f-1     :     0.000358
      f+2     :     0.000237
      f-2     :     0.000648
      f+3     :     0.001740
      f-3     :     0.001357

  1 C s       :     3.215632  s :     3.215632
      pz      :     0.932741  p :     2.758364
      px      :     0.870534
      py      :     0.955089
      dz2     :     0.004476  d :     0.086492
      dxz     :     0.023829
      dyz     :     0.003815
      dx2y2   :     0.036373
      dxy     :     0.017998
      f0      :     0.001173  f :     0.007793
      f+1     :     0.000712
      f-1     :     0.000466
      f+2     :     0.000464
      f-2     :     0.000863
      f+3     :     0.002551
      f-3     :     0.001563

  2 H s       :     0.864504  s :     0.864504
      pz      :     0.011973  p :     0.027821
      px      :     0.008928
      py      :     0.006919
      dz2     :     0.000146  d :     0.002494
      dxz     :     0.000015
      dyz     :     0.000856
      dx2y2   :     0.000407
      dxy     :     0.001070

  3 H s       :     0.858267  s :     0.858267
      pz      :     0.012228  p :     0.028398
      px      :     0.006661
      py      :     0.009508
      dz2     :     0.000125  d :     0.002402
      dxz     :     0.000757
      dyz     :     0.000102
      dx2y2   :     0.000714
      dxy     :     0.000705

  4 H s       :     0.852937  s :     0.852937
      pz      :     0.011730  p :     0.030114
      px      :     0.010586
      py      :     0.007799
      dz2     :     0.000131  d :     0.002678
      dxz     :     0.000023
      dyz     :     0.000807
      dx2y2   :     0.000369
      dxy     :     0.001348

  5 C s       :     3.272925  s :     3.272925
      pz      :     1.002649  p :     2.936460
      px      :     0.928778
      py      :     1.005034
      dz2     :     0.007951  d :     0.059742
      dxz     :     0.020906
      dyz     :     0.003611
      dx2y2   :     0.017109
      dxy     :     0.010166
      f0      :     0.000298  f :     0.003856
      f+1     :     0.000877
      f-1     :     0.000408
      f+2     :     0.000322
      f-2     :     0.000065
      f+3     :     0.000723
      f-3     :     0.001162

  6 H s       :     0.867551  s :     0.867551
      pz      :     0.009089  p :     0.030032
      px      :     0.011228
      py      :     0.009714
      dz2     :     0.000761  d :     0.002506
      dxz     :     0.000569
      dyz     :     0.000494
      dx2y2   :     0.000433
      dxy     :     0.000249

  7 H s       :     0.867551  s :     0.867551
      pz      :     0.009088  p :     0.030031
      px      :     0.011228
      py      :     0.009714
      dz2     :     0.000761  d :     0.002506
      dxz     :     0.000569
      dyz     :     0.000494
      dx2y2   :     0.000433
      dxy     :     0.000249

  8 H s       :     0.871843  s :     0.871843
      pz      :     0.010610  p :     0.029634
      px      :     0.009753
      py      :     0.009272
      dz2     :     0.000162  d :     0.002505
      dxz     :     0.000032
      dyz     :     0.000809
      dx2y2   :     0.000426
      dxy     :     0.001076



                     *******************************
                     * LOEWDIN POPULATION ANALYSIS *
                     *******************************

----------------------
LOEWDIN ATOMIC CHARGES
----------------------
   0 C :    0.075368
   1 C :    0.012753
   2 H :   -0.045521
   3 H :   -0.043865
   4 H :   -0.033202
   5 C :    0.095692
   6 H :   -0.020019
   7 H :   -0.020017
   8 H :   -0.021188

-------------------------------
LOEWDIN REDUCED ORBITAL CHARGES
-------------------------------
  0 C s       :     2.727039  s :     2.727039
      pz      :     0.884838  p :     2.897862
      px      :     1.019434
      py      :     0.993590
      dz2     :     0.019037  d :     0.271203
      dxz     :     0.027343
      dyz     :     0.009628
      dx2y2   :     0.130976
      dxy     :     0.084218
      f0      :     0.000843  f :     0.028529
      f+1     :     0.003220
      f-1     :     0.002497
      f+2     :     0.001187
      f-2     :     0.003711
      f+3     :     0.009346
      f-3     :     0.007725

  1 C s       :     2.720393  s :     2.720393
      pz      :     0.827712  p :     2.819251
      px      :     1.003347
      py      :     0.988191
      dz2     :     0.024045  d :     0.407199
      dxz     :     0.087745
      dyz     :     0.012757
      dx2y2   :     0.173014
      dxy     :     0.109638
      f0      :     0.002261  f :     0.040405
      f+1     :     0.003720
      f-1     :     0.002740
      f+2     :     0.002474
      f-2     :     0.005938
      f+3     :     0.014904
      f-3     :     0.008368

  2 H s       :     0.857385  s :     0.857385
      pz      :     0.045424  p :     0.159452
      px      :     0.035721
      py      :     0.078307
      dz2     :     0.002554  d :     0.028684
      dxz     :     0.000036
      dyz     :     0.008566
      dx2y2   :     0.008186
      dxy     :     0.009342

  3 H s       :     0.854557  s :     0.854557
      pz      :     0.046432  p :     0.160651
      px      :     0.066693
      py      :     0.047527
      dz2     :     0.002571  d :     0.028657
      dxz     :     0.007080
      dyz     :     0.001563
      dx2y2   :     0.008887
      dxy     :     0.008557

  4 H s       :     0.846363  s :     0.846363
      pz      :     0.041317  p :     0.158003
      px      :     0.037343
      py      :     0.079343
      dz2     :     0.002593  d :     0.028836
      dxz     :     0.000025
      dyz     :     0.008109
      dx2y2   :     0.008537
      dxy     :     0.009573

  5 C s       :     2.661865  s :     2.661865
      pz      :     0.989165  p :     2.919748
      px      :     0.948159
      py      :     0.982424
      dz2     :     0.044893  d :     0.292325
      dxz     :     0.092132
      dyz     :     0.017410
      dx2y2   :     0.086693
      dxy     :     0.051197
      f0      :     0.001920  f :     0.030371
      f+1     :     0.005365
      f-1     :     0.004418
      f+2     :     0.002687
      f-2     :     0.004471
      f+3     :     0.005054
      f-3     :     0.006456

  6 H s       :     0.834952  s :     0.834952
      pz      :     0.061657  p :     0.156037
      px      :     0.050714
      py      :     0.043665
      dz2     :     0.008972  d :     0.029030
      dxz     :     0.007416
      dyz     :     0.005954
      dx2y2   :     0.003638
      dxy     :     0.003051

  7 H s       :     0.834950  s :     0.834950
      pz      :     0.061662  p :     0.156037
      px      :     0.050712
      py      :     0.043663
      dz2     :     0.008972  d :     0.029030
      dxz     :     0.007417
      dyz     :     0.005955
      dx2y2   :     0.003636
      dxy     :     0.003050

  8 H s       :     0.839073  s :     0.839073
      pz      :     0.041477  p :     0.152714
      px      :     0.038026
      py      :     0.073211
      dz2     :     0.002521  d :     0.029401
      dxz     :     0.000159
      dyz     :     0.009507
      dx2y2   :     0.007777
      dxy     :     0.009438



                      *****************************
                      * MAYER POPULATION ANALYSIS *
                      *****************************

  NA   - Mulliken gross atomic population
  ZA   - Total nuclear charge
  QA   - Mulliken gross atomic charge
  VA   - Mayer's total valence
  BVA  - Mayer's bonded valence
  FA   - Mayer's free valence

  ATOM       NA         ZA         QA         VA         BVA        FA
  0 C      6.2850     6.0000    -0.2850     3.8633     3.8633     0.0000
  1 C      6.0683     6.0000    -0.0683     3.8276     3.8276     0.0000
  2 H      0.8948     1.0000     0.1052     0.9894     0.9894     0.0000
  3 H      0.8891     1.0000     0.1109     0.9869     0.9869     0.0000
  4 H      0.8857     1.0000     0.1143     0.9878     0.9878     0.0000
  5 C      6.2730     6.0000    -0.2730     3.8837     3.8837     0.0000
  6 H      0.9001     1.0000     0.0999     0.9820     0.9820     0.0000
  7 H      0.9001     1.0000     0.0999     0.9820     0.9820    -0.0000
  8 H      0.9040     1.0000     0.0960     0.9921     0.9921    -0.0000

  Mayer bond orders larger than 0.100000
B(  0-C ,  1-C ) :   1.8729 B(  0-C ,  2-H ) :   0.9595 B(  0-C ,  3-H ) :   0.9690 
B(  1-C ,  4-H ) :   0.9598 B(  1-C ,  5-C ) :   0.9704 B(  5-C ,  6-H ) :   0.9605 
B(  5-C ,  7-H ) :   0.9605 B(  5-C ,  8-H ) :   0.9721 

-------
TIMINGS
-------

Total SCF time: 0 days 0 hours 0 min 9 sec 

Total time                  ....       9.113 sec
Sum of individual times     ....       7.805 sec  ( 85.6%)

SCF preparation             ....       0.083 sec  (  0.9%)
Fock matrix formation       ....       7.681 sec  ( 84.3%)
  Startup                   ....       0.002 sec  (  0.0% of F)
  Split-RI-J                ....       0.299 sec  (  3.9% of F)
  Chain of spheres X        ....       7.269 sec  ( 94.6% of F)
  XC integration            ....       1.367 sec  ( 17.8% of F)
    Basis function eval.    ....       0.544 sec  ( 39.8% of XC)
    Density eval.           ....       0.268 sec  ( 19.6% of XC)
    XC-Functional eval.     ....       0.095 sec  (  6.9% of XC)
    XC-Potential eval.      ....       0.431 sec  ( 31.5% of XC)
Diagonalization             ....       0.000 sec  (  0.0%)
Density matrix formation    ....       0.004 sec  (  0.0%)
Total Energy calculation    ....       0.001 sec  (  0.0%)
Population analysis         ....       0.009 sec  (  0.1%)
Orbital Transformation      ....       0.005 sec  (  0.1%)
Orbital Orthonormalization  ....       0.000 sec  (  0.0%)
DIIS solution               ....       0.007 sec  (  0.1%)
SOSCF solution              ....       0.015 sec  (  0.2%)
Finished LeanSCF after   9.1 sec

Maximum memory used throughout the entire LEANSCF-calculation: 18.2 MB

-------------------------   --------------------
FINAL SINGLE POINT ENERGY      -117.869727999940
-------------------------   --------------------

                                *** OPTIMIZATION RUN DONE ***


------------------------------------------------------------------------------
                              ORCA PROPERTY CALCULATIONS
------------------------------------------------------------------------------

GBWName                                 ... opt.gbw
Number of atoms                         ...      9
Number of basis functions               ...    192
Max core memory                         ...   4096 MB

Electric properties:
Dipole moment                           ... YES
Quadrupole moment                       ...  NO
Static polarizability (Dipole/Dipole)   ...  NO
Static polarizability (Dipole/Quad.)    ...  NO
Static polarizability (Quad./Quad.)     ...  NO
Static polarizability (Velocity)        ...  NO
Static hyperpolarizability              ...  NO

Atomic electric properties:
Dipole moment                           ...  NO
Quadrupole moment                       ...  NO
Static polarizability                   ...  NO

Choice of electric origin               ... Center of mass
Position of electric origin             ...     0.048563    -0.018833    -0.000009

General magnetic properties:
Magnetizability                         ...  NO

EPR properties:
g-Tensor (aka g-matrix)                 ...  NO
Zero-Field splitting spin-orbit         ...  NO
Zero-field splitting spin-spin          ...  NO
Hyperfine couplings                     ...  NO (   0 nuclei)
Quadrupole couplings                    ...  NO (   0 nuclei)
Contact density                         ...  NO (   0 nuclei)

NMR properties:
Chemical shifts                         ...  NO (   0 nuclei)
Spin-rotation constants                 ...  NO (   0 nuclei)
Spin-spin couplings                     ...  NO (   0 nuclei,    0 pairs)

Choice of magnetic origin               ... GIAO
Position of magnetic origin             ...     0.000000     0.000000     0.000000

Properties with geometric perturbations:
SCF Hessian                             ...  NO
IR spectrum                             ...  NO
VCD spectrum                            ...  NO
X-ray spectroscopy properties:
SCF XES/XAS/RIXS spectra                ...  NO

SCF SOC stabilization energy            ...  NO
Diagonal Born-Oppenheimer correction    ...  NO

-------------
DIPOLE MOMENT
-------------

Method             : SCF
Type of density    : Electron Density
Multiplicity       :   1
Irrep              :   0
Energy             :  -117.8697279999399115 Eh
Basis              : AO
                                X                 Y                 Z
Electronic contribution:      1.010711824      -0.482409590      -0.000015174
Nuclear contribution   :     -1.165527597       0.452541685       0.000021399
                        -----------------------------------------
Total Dipole Moment    :     -0.154815774      -0.029867905       0.000006225
                        -----------------------------------------
Magnitude (a.u.)       :      0.157670592
Magnitude (Debye)      :      0.400766795



--------------------
Rotational spectrum 
--------------------
 
Rotational constants in cm-1:             1.574808             0.310549             0.272371 
Rotational constants in MHz :         47211.557904          9310.011463          8165.465063 

Dipole components along the rotational axes: 
x,y,z [a.u.] :    -0.154906     0.029394     0.000006 
x,y,z [Debye]:    -0.393741     0.074714     0.000014 

 

Dipole moment calculation done in   0.0 sec 

Maximum memory used throughout the entire PROP-calculation: 11.0 MB

--------------------------------
SUGGESTED CITATIONS FOR THIS RUN
--------------------------------

Below you find a list of papers that are relevant to this ORCA run
We neither can nor want to force you to cite these papers, but we appreciate if you do
You receive ORCA, which is the product of decades of hard work by many enthusiastic individuals, for free
The only thing we kindly ask in return is that you cite our papers,
We deeply appreciate it, if you show your appreciation for ORCA by not just citing the generic ORCA reference.

Please note that relegating all ORCA citations to the supporting information does *not* help us.
SI sections are not indexed - citations you put there will not count into any citation statistics
But we need these citations in order to attract the funding resources that allow us to do what we are doing

Therefore, if you are a happy ORCA user, please consider citing a few of the papers listed below in the main body of your paper

In addition to the list printed below, the program has created the file opt.bibtex that contains the list in bibtex format
You can import this file easily into all common literature databanks and citation aid programs


List of essential papers. We consider these as the minimum necessary citations

  1. Neese, F.
     Software update: the ORCA program system, version 6.0
     WIRES Comput. Molec. Sci. 2025 15(1), e70019
     doi.org/10.1002/wcms.7019

List of papers to cite with high priority. The work reported in these papers was absolutely
necessary for this run to complete.
Our perspective: the developers of density functionals and basis sets usually get cited in chemistry papers
Good! But without the algorithms to do something with them, the functionals or basis sets would not do anything.
Hence, in our opinion, the algorithm design and method developments papers are equally worthy of getting cited

  1. Neese, F.
     An improvement of the resolution of the identity approximation for the formation of the Coulomb matrix
     J. Comp. Chem. 2003 24(14), 1740-1747
     doi.org/10.1002/jcc.10318
  2. Neese, F.; Wennmohs, F.; Hansen, A.; Becker, U.
     Efficient, approximate and parallel Hartree-Fock and hybrid DFT calculations. A 'chain-of-spheres' algorithm for the Hartree-Fock exchange
     Chem. Phys. 2009 356(1-3), 98-109
     doi.org/10.1016/j.chemphys.2008.10.036
  3. Helmich-Paris, B.; de Souza, B.; Neese, F.; Izsák, R.
     An improved chain of spheres for exchange algorithm
     J. Chem. Phys. 2021 155(10), 104109
     doi.org/10.1063/5.0058766
  4. Neese, F.
     The SHARK Integral Generation and Digestion System
     J. Comp. Chem. 2022 44(3), 381
     doi.org/10.1002/jcc.26942

List of suggested additional citations. These are papers that are important in the 'surrounding' of 
of this run, or papers that preceded the highly important papers. If you like your results we are grateful for a citation.

  1. Izsak, R.; Neese, F.
     An overlap fitted chain of spheres exchange method
     J. Chem. Phys. 2011 135 , 144105
     doi.org/10.1063/1.3646921
  2. Izsak, R.; Hansen, A.; Neese, F.
     The resolution of identity and chain of spheres approximations for the LPNO-CCSD singles Fock term
     Molec. Phys. 2012 110 , 2413-2417
     doi.org/10.1080/00268976.2012.687466
  3. Neese, F.
     The ORCA program system
     WIRES Comput. Molec. Sci. 2012 2(1), 73-78
     doi.org/10.1002/wcms.81
  4. Izsak, R.; Neese, F.; Klopper, W.
     Robust fitting techniques in the chain of spheres approximation to the Fock exchange: The role of the complementary space
     J. Chem. Phys. 2013 139 , 
     doi.org/10.1063/1.4819264
  5. Neese, F.
     Software update: the ORCA program system, version 4.0
     WIRES Comput. Molec. Sci. 2018 8(1), 1-6
     doi.org/10.1002/wcms.1327
  6. Neese, F.; Wennmohs, F.; Becker, U.; Riplinger, C.
     The ORCA quantum chemistry program package
     J. Chem. Phys. 2020 152(22), 224108
     doi.org/10.1063/5.0004608
  7. Neese, F.
     Software update: The ORCA program system—Version 5.0
     WIRES Comput. Molec. Sci. 2022 12(1), e1606
     doi.org/10.1002/wcms.1606

List of optional additional citations

  1. Neese, F.
     Approximate second-order SCF convergence for spin unrestricted wavefunctions
     Chem. Phys. Lett. 2000 325(1-3), 93-98
     doi.org/10.1016/s0009-2614(00)00662-x

Timings for individual modules:

Sum of individual times          ...       45.677 sec (=   0.761 min)
Startup calculation              ...        3.158 sec (=   0.053 min)   6.9 %
SCF iterations                   ...       27.677 sec (=   0.461 min)  60.6 %
Property calculations            ...        0.290 sec (=   0.005 min)   0.6 %
SCF Gradient evaluation          ...       14.545 sec (=   0.242 min)  31.8 %
Geometry relaxation              ...        0.007 sec (=   0.000 min)   0.0 %
                             ****ORCA TERMINATED NORMALLY****
TOTAL RUN TIME: 0 days 0 hours 0 minutes 46 seconds 558 msec
