
                                 *****************
                                 * O   R   C   A *
                                 *****************

                                            #,                                       
                                            ###                                      
                                            ####                                     
                                            #####                                    
                                            ######                                   
                                           ########,                                 
                                     ,,################,,,,,                         
                               ,,#################################,,                 
                          ,,##########################################,,             
                       ,#########################################, ''#####,          
                    ,#############################################,,   '####,        
                  ,##################################################,,,,####,       
                ,###########''''           ''''###############################       
              ,#####''   ,,,,##########,,,,          '''####'''          '####       
            ,##' ,,,,###########################,,,                        '##       
           ' ,,###''''                  '''############,,,                           
         ,,##''                                '''############,,,,        ,,,,,,###''
      ,#''                                            '''#######################'''  
     '                                                          ''''####''''         
             ,#######,   #######,   ,#######,      ##                                
            ,#'     '#,  ##    ##  ,#'     '#,    #''#        ,####,    ,#,          
            ##       ##  ##   ,#'  ##            #'  '#       #'       ,# #          
            ##       ##  #######   ##           ,######,      #####,      #          
            '#,     ,#'  ##    ##  '#,     ,#' ,#      #,     #,   #      #          
             '#######'   ##     ##  '#######'  #'      '#     '####' #    #          



                #########################################################
                #                        -***-                          #
                #          Department of theory and spectroscopy        #
                #                                                       #
                #                      Frank Neese                      #
                #                                                       #
                #     Directorship, Architecture, Infrastructure        #
                #                    SHARK, DRIVERS                     #
                #        Core code/Algorithms in most modules           #
                #                                                       #
                #        Max Planck Institute fuer Kohlenforschung      #
                #                Kaiser Wilhelm Platz 1                 #
                #                 D-45470 Muelheim/Ruhr                 #
                #                      Germany                          #
                #                                                       #
                #                  All rights reserved                  #
                #                        -***-                          #
                #########################################################


                         Program Version 6.1.0  -  RELEASE   -
                                (GIT: $679e74b$)
                          ($2025-06-10 18:02:51 +0200$)


 With contributions from (in alphabetic order):
[Max-Planck-Institut fuer Kohlenforschung]                               
  Daniel Aravena         : Magnetic Suceptibility                        
  Michael Atanasov       : Ab Initio Ligand Field Theory (pilot matlab implementation)
  Alexander A. Auer      : GIAO ZORA, VPT2 properties, NMR spectrum      
  Ute Becker             : All parallelization in ORCA, NUMFREQ, NUMCALC 
  Giovanni Bistoni       : ED, misc. LED, open-shell LED, HFLD           
  Dmytro Bykov           : pre 5.0 version of the SCF Hessian            
  Marcos Casanova-Páez   : Triplet and SCS-CIS(D). UHF-(DLPNO)-IP/EA/STEOM-CCSD. UHF-CVS-IP/STEOM-CCSD   
  Vijay G. Chilkuri      : MRCI spin determinant printing, contributions to CSF-ICE 
  Pauline Colinet        : FMM embedding                                 
  Dipayan Datta          : RHF DLPNO-CCSD density                        
  Achintya Kumar Dutta   : EOM-CC, STEOM-CC                              
  Nicolas Foglia         : Exact transition moments, OPA infrastructure, MCD improvements    
  Dmitry Ganyushin       : Spin-Orbit,Spin-Spin,Magnetic field MRCI      
  Miquel Garcia-Rates    : C-PCM and meta-GGA Hessian, CCSD/C-PCM, Gaussian charge scheme 
  Tiago L. C. Gouveia    : GS-ROHF, GS-ROCIS                             
  Yang Guo               : DLPNO-NEVPT2, F12-NEVPT2, CIM, IAO-localization        
  Andreas Hansen         : Spin unrestricted coupled pair/coupled cluster methods 
  Ingolf Harden          : AUTO-CI MPn and infrastructure                
  Benjamin Helmich-Paris : MC-RPA, TRAH-(SCF,CASSCF), AVAS, COSX integrals, SCF dyn. polar., MC-PDFT, srDFT 
  Lee Huntington         : MR-EOM, pCC                                   
  Robert Izsak           : Overlap fitted RIJCOSX, COSX-SCS-MP3, EOM     
  Riya Kayal             : Wick's Theorem for AUTO-CI, AUTO-CI UHF-CCSDT 
  Emily Kempfer          : AUTO-CI RHF CISDT and CCSDT, approximate NEVPT4
  Christian Kollmar      : KDIIS, OOCD, Brueckner-CCSD(T), CCSD density, CASPT2, CASPT2-K, improved NEVPT2 
  Axel Koslowski         : Symmetry handling                             
  Simone Kossmann        : meta-GGA functionals, TD-DFT gradient, OOMP2, (MP2 Hessian; deprecated post 5.0) 
  Lucas Lang             : DCDCAS, Hyperfine gauge corrections, ICE-SOC+SSC
  Marvin Lechner         : AUTO-CI (C++ implementation), FIC-MRCC        
  Spencer Leger          : CASSCF response                               
  Dagmar Lenk            : GEPOL surface, SMD, ORCA-2-JSON               
  Dimitrios Liakos       : Extrapolation schemes; Compound Job, Property file
  Dimitrios Manganas     : Further ROCIS development; embedding schemes. LFT, Crystal Embedding 
  Dimitrios Pantazis     : SARC Basis sets                               
  Anastasios Papadopoulos: AUTO-CI, single reference methods and gradients 
  Taras Petrenko         : pre 6.0 DFT Hessian and TD-DFT gradient,  ECA, NRVS 
  Petra Pikulova         : Analytic Raman intensities                    
  Peter Pinski           : DLPNO-MP2, DLPNO-MP2 Gradient                 
  Shashank Vittal Rao    : ES-AILFT, MagRelax                            
  Christoph Reimann      : Effective Core Potentials                     
  Marius Retegan         : Local ZFS, SOC                                
  Christoph Riplinger    : Optimizer, TS searches, QM/MM, DLPNO-CCSD(T), (RO)-DLPNO pert. Triples 
  Michael Roemelt        : Original ROCIS implementation, recursive CI coupling coefficients
  Masaaki Saitow         : Open-shell DLPNO-CCSD energy and density      
  Barbara Sandhoefer     : DKH picture change effects                    
  Yorick L. A. Schmerwitz: GMF and freeze-and-release deltaSCF, NEB S-IDPP initial path                    
  Kantharuban Sivalingam : CASSCF convergence/infrastructure, NEVPT2, NEVPT3, NEVPT4(SD), FIC-MRCI and CEPA variants
  Bernardo de Souza      : ESD, SOC TD-DFT                               
  Georgi L. Stoychev     : AutoAux, RI-MP2 NMR, DLPNO-MP2 response, X2C  
  Van Anh Tran           : RI-MP2 g-tensors                              
  Willem Van den Heuvel  : Paramagnetic NMR                              
  Zikuan Wang            : NOTCH, Electric field optimization            
  Frank Wennmohs         : Technical directorship and infrastructure     
  Hang Xu                : AUTO-CI-Response properties                   
                                                                         
[FACCTs GmbH]                                                            
  Markus Bursch, Nicolas Foglia, Miquel Garcia-Rates, Ingolf Harden, Hagen Neugebauer, Anastasios Papadopoulos, 
  Christoph Riplinger, Bernardo de Souza, Georgi L. Stoychev                                                    
                                                                 
  APM, various basis sets, CI-OPT, improved COSX, DLPNO-Multilevel,           
  DOCKER, DRACO, updates on ESD, Fragmentator, GOAT, IRC, LR-CPCM, L-BFGS, MBIS, meta-GGA TD-DFT gradient, ML-optimized integration grids, 
  MM, NACMEs, nearIR, NEB, NEB-TS, NL-DFT gradient (VV10), 2- and 3-layer-ONIOM, interface openCOSMO-RS, QMMM,   
  Crystal-QMMM, RESP, rigid body optimization, SF, symmetry and pop. for TD-DFT, various functionals, SOLVATOR                                   
                                                                         
[Other institutions]                                                     
  V. Asgeirsson          : NEB                                           
  Christoph Bannwarth    : sTDA-DFT, sTD-DFT, PBEh-3c, B97-3c, D3        
  Giovanni Bistoni       : ETS/NOCV, ADLD/ADEX, COVALED                  
  Martin Brehm           : Molecular dynamics                            
  Ronald Cardenas        : ETS/NOCV                                      
  Martina Colucci        : COVALED                                       
  Sebastian Ehlert       : rSCAN, r2SCAN, r2SCAN-3c, D4, dhf basis sets  
  Marvin Friede          : D4 for Fr, Ra, Ac-Lr                          
  Lars Goerigk           : TD-DFT with DH, B97 family of functionals     
  Stefan Grimme          : VdW corrections, initial TS optimization, DFT functionals, gCP, sTDA/sTD-DF 
  Waldemar Hujo          : DFT-NL                                        
  H. Jonsson             : NEB                                           
  Holger Kruse           : gCP                                           
  Marcel Mueller         : wB97X-3c, vDZP basis set                      
  Hagen Neugebauer       : wr2SCAN, Native XTB                           
  Gianluca Regni         : ADLD/ADEX                                     
  Tobias Risthaus        : pre 6.0 range-separated hybrid DFT and stability analysis
  Lukas Wittmann         : regularized MP2, r2SCAN double-hybrids, wr2SCAN        
                                                                         
We gratefully acknowledge several colleagues who have allowed us to      
interface, adapt or use parts of their codes:                            
  Ed Valeev, F. Pavosevic, A. Kumar             : LibInt (2-el integral package), F12 methods 
  Garnet Chan, S. Sharma, J. Yang, R. Olivares  : DMRG                   
  Ulf Ekstrom                                   : XCFun DFT Library      
  Mihaly Kallay                                 : mrcc  (arbitrary order and MRCC methods)
  Frank Weinhold                                : gennbo (NPA and NBO analysis)           
  Simon Mueller                                 : openCOSMO-RS                            
  Christopher J. Cramer and Donald G. Truhlar   : smd solvation model                     
  S Lehtola, MJT Oliveira, MAL Marques          : LibXC Library                           
  Liviu Ungur et al                             : ANISO software                          


 Your calculation uses the libint2 library for the computation of 2-el integrals
 For citations please refer to: http://libint.valeyev.net

 Your ORCA version has been built with support for libXC version: 7.0.0
 For citations please refer to: https://libxc.gitlab.io

 This ORCA versions uses:
   CBLAS   interface :  Fast vector & matrix operations
   LAPACKE interface :  Fast linear algebra routines
   SCALAPACK package :  Parallel linear algebra routines
   Shared memory     :  Shared parallel matrices
   BLAS/LAPACK       :  OpenBLAS 0.3.29  USE64BITINT DYNAMIC_ARCH NO_AFFINITY SkylakeX SINGLE_THREADED
        Core in use  :  SkylakeX
   Copyright (c) 2011-2014, The OpenBLAS Project


  ***********************************
  * Starting time: Tue Aug 19 15:31:37 2025
  * Host name:     csed-0009
  * Process ID:    1520974
  * Working dir.:  /gpfs/fs1/home/copan/proj/cyclopentene-oh-addition-project/calc/cyC5e1+OH/run-revdsd
  ***********************************

NOTE: MaxCore=10000 MB was set to SCF,MP2,MDCI,CIPSI,MRCI,RASCI and CIS
      => If you want to overwrite this, your respective input block should be placed after the MaxCore statement


***************************************
The coordinates will be read from file: guess.xyz
***************************************


Your calculation utilizes the atom-pairwise dispersion correction
based on EEQ partial charges (D4)


Warning: RI is on but no J-basis has been assigned. Assigning Def2/J (nothing to worry about!)
================================================================================

----- Orbital basis set information -----
Your calculation utilizes the basis: def2-TZVPP
   F. Weigend and R. Ahlrichs, Phys. Chem. Chem. Phys. 7, 3297 (2005).

----- AuxJ basis set information -----
Your calculation utilizes the auxiliary basis: def2/J
   H-Rn: F. Weigend, Phys. Chem. Chem. Phys. 8, 1057 (2006).
   Fr-Lr: K. Eichkorn, F. Weigend, O. Treutler, R. Ahlrichs; Theor. Chem. Acc. 97, 119 (1997).

----- AuxC basis set information -----
Your calculation utilizes the auxiliary basis: def2-TZVPP/C
  H-La, Hf-Rn : A. Hellweg, C. Hattig, S. Hofener and W. Klopper, Theor. Chem. Acc. 117, 587 (2007).
        Ce-Lu : J. Chmela and M. E. Harding, Mol. Phys. (2018).

================================================================================
                                        WARNINGS
                       Please study these warnings very carefully!
================================================================================


WARNING: your system is open-shell and RHF/RKS was chosen
  ===> : WILL SWITCH to UHF/UKS


WARNING: The frozen-core approximation for MP2-gradient calculations is turned on by default.

WARNING: Geometry Optimization
  ===> : Switching off AutoStart
         For restart on a previous wavefunction, please use MOREAD

WARNING: The frozen-core approximation is turned on by default for 
         the MP2 part of double-hybrid DFT.

================================================================================
                                       INPUT FILE
================================================================================
NAME = opt.inp
|  1> % MaxCore 10000
|  2> ! PAL8
|  3> ! REVDSD-PBEP86-D4/2021 def2-TZVPP def2-TZVPP/c
|  4> ! OPT
|  5> * xyzfile 0 2 guess.xyz
|  6> 
|  7>                          ****END OF INPUT****
================================================================================

                       *****************************
                       * Geometry Optimization Run *
                       *****************************

Geometry optimization settings:
Update method            Update   .... BFGS
Choice of coordinates    CoordSys .... (2022) Redundant Internals
Initial Hessian          InHess   .... Almloef's Model
Max. no of cycles        MaxIter  .... 50

Convergence Tolerances:
Energy Change            TolE     ....  5.0000e-06 Eh
Max. Gradient            TolMAXG  ....  3.0000e-04 Eh/bohr
RMS Gradient             TolRMSG  ....  1.0000e-04 Eh/bohr
Max. Displacement        TolMAXD  ....  4.0000e-03 bohr
RMS Displacement         TolRMSD  ....  2.0000e-03 bohr
Strict Convergence                .... False

------------------------------------------------------------------------------
                        ORCA OPTIMIZATION COORDINATE SETUP
------------------------------------------------------------------------------

The optimization will be done in redundant internal coordinates (2022)
Making redundant internal coordinates   ...  (2022 redundants) done
Evaluating the initial hessian          ...  (Almloef) done
Evaluating the coordinates              ...  done
Calculating the B-matrix                .... done
Calculating the G-matrix                .... done
The number of degrees of freedom        ....  221

    -----------------------------------------------------------------
                    Redundant Internal Coordinates


    -----------------------------------------------------------------
         Definition                    Initial Value    Approx d2E/dq
    -----------------------------------------------------------------
      1. B(C   1,C   0)                  1.5340         0.368114   
      2. B(C   2,C   1)                  1.5343         0.367682   
      3. B(C   3,C   2)                  1.5018         0.414338   
      4. B(C   4,C   3)                  1.3274         0.786363   
      5. B(C   4,C   0)                  1.5010         0.415630   
      6. B(H   5,C   0)                  1.0932         0.355907   
      7. B(H   6,C   0)                  1.0898         0.360321   
      8. B(H   7,C   1)                  1.0882         0.362496   
      9. B(H   8,C   1)                  1.0901         0.359921   
     10. B(H   9,C   2)                  1.0901         0.359940   
     11. B(H  10,C   2)                  1.0932         0.355839   
     12. B(H  11,C   3)                  1.0823         0.370365   
     13. B(H  12,C   4)                  1.0824         0.370295   
     14. B(H  14,C   4)                  2.4192         0.010000   
     15. B(H  14,O  13)                  0.9767         0.488952   
     16. B(H  14,C   2)                  3.1110         0.010000   
     17. B(H  14,H   6)                  3.0855         0.010000   
     18. B(H  14,C   0)                  3.0586         0.010000   
     19. B(H  14,H   8)                  2.8396         0.010000   
     20. B(H  14,H  11)                  2.8219         0.010000   
     21. B(H  14,H  12)                  2.7628         0.010000   
     22. B(H  14,C   3)                  2.4531         0.010000   
     23. A(H   5,C   0,H  14)          160.4252         0.128173   
     24. A(C   1,C   0,H   5)          112.0516         0.322915   
     25. A(C   1,C   0,H   6)          112.5419         0.323568   
     26. A(C   1,C   0,H  14)           79.8647         0.134640   
     27. A(C   4,C   0,H  14)           51.1828         0.135911   
     28. A(H   6,C   0,H  14)           81.1769         0.128282   
     29. A(C   4,C   0,H   6)          112.8939         0.330103   
     30. A(C   4,C   0,H   5)          109.6794         0.329432   
     31. A(C   1,C   0,C   4)          103.0482         0.369121   
     32. A(H   5,C   0,H   6)          106.7068         0.290333   
     33. A(C   0,C   1,H   7)          112.7420         0.323888   
     34. A(C   0,C   1,H   8)          109.1772         0.323509   
     35. A(C   2,C   1,H   7)          112.6755         0.323826   
     36. A(C   2,C   1,H   8)          109.4196         0.323447   
     37. A(C   0,C   1,C   2)          105.5839         0.361456   
     38. A(H   7,C   1,H   8)          107.1988         0.291120   
     39. A(C   3,C   2,H  10)          109.6360         0.329252   
     40. A(C   3,C   2,H   9)          113.0788         0.329876   
     41. A(H   9,C   2,H  10)          106.5373         0.290276   
     42. A(C   3,C   2,H  14)           50.7195         0.133878   
     43. A(C   1,C   2,H  14)           78.0553         0.132680   
     44. A(H  10,C   2,H  14)          160.2990         0.126500   
     45. A(C   1,C   2,H   9)          112.6482         0.323450   
     46. A(C   1,C   2,H  10)          111.9766         0.322843   
     47. A(H   9,C   2,H  14)           83.5297         0.126597   
     48. A(C   1,C   2,C   3)          103.0517         0.368849   
     49. A(C   2,C   3,H  14)          100.9943         0.166553   
     50. A(C   4,C   3,H  11)          124.7625         0.369274   
     51. A(C   4,C   3,H  14)           72.7852         0.178657   
     52. A(H  11,C   3,H  14)           98.3757         0.154393   
     53. A(C   2,C   3,C   4)          111.7614         0.421391   
     54. A(C   2,C   3,H  11)          123.3754         0.331437   
     55. A(H  12,C   4,H  14)           96.6798         0.156263   
     56. A(C   3,C   4,H  14)           75.6060         0.181224   
     57. A(C   0,C   4,H  14)           99.9083         0.168830   
     58. A(C   3,C   4,H  12)          124.8186         0.369262   
     59. A(C   0,C   4,H  12)          123.2096         0.331598   
     60. A(C   0,C   4,C   3)          111.8892         0.421626   
     61. A(C   0,H   6,H  14)           78.3947         0.110129   
     62. A(C   1,H   8,H  14)           97.4744         0.114916   
     63. A(C   3,H  11,H  14)           59.3235         0.115471   
     64. A(C   4,H  12,H  14)           60.4208         0.116801   
     65. A(H   6,H  14,H  12)           53.2825         0.091891   
     66. A(C   3,H  14,H   6)           69.0363         0.095801   
     67. A(C   4,H  14,H   6)           44.4378         0.095996   
     68. A(H   6,H  14,O  13)          110.8311         0.111376   
     69. A(C   0,H  14,H   8)           42.6403         0.094044   
     70. A(C   0,H  14,H  11)           70.2100         0.094118   
     71. A(C   4,H  14,O  13)          150.2335         0.159796   
     72. A(C   0,H  14,H  12)           45.7931         0.094376   
     73. A(C   0,H  14,C   3)           48.8613         0.101645   
     74. A(C   0,H  14,C   4)           28.9089         0.102007   
     75. A(C   0,H  14,O  13)          130.6979         0.130602   
     76. A(H   8,H  14,H  11)           86.6511         0.092378   
     77. A(H   8,H  14,H  12)           87.7020         0.092547   
     78. A(C   3,H  14,H   8)           66.6198         0.097344   
     79. A(C   4,H  14,H   8)           66.9885         0.097583   
     80. A(H   8,H  14,O  13)          110.3983         0.116453   
     81. A(H  11,H  14,H  12)           54.6141         0.092600   
     82. A(C   3,H  14,H  11)           22.3008         0.097468   
     83. A(C   4,H  14,H  11)           47.3886         0.097710   
     84. A(H   6,H  14,H  11)           89.7432         0.091753   
     85. A(C   0,H  14,C   2)           46.6592         0.096317   
     86. A(H  11,H  14,O  13)          158.9735         0.116860   
     87. A(C   2,H  14,H  11)           44.9500         0.093900   
     88. A(C   2,H  14,H  12)           70.1361         0.094146   
     89. A(C   2,H  14,C   3)           28.2863         0.101105   
     90. A(C   3,H  14,H  12)           47.9626         0.097894   
     91. A(C   2,H  14,C   4)           48.1870         0.101452   
     92. A(C   2,H  14,O  13)          148.0184         0.128827   
     93. A(C   4,H  14,H  12)           22.8994         0.098148   
     94. A(H  12,H  14,O  13)          135.1890         0.118261   
     95. A(C   0,H  14,H   6)           20.4283         0.093111   
     96. A(C   2,H  14,H   8)           42.2081         0.093828   
     97. A(H   6,H  14,H   8)           46.5315         0.091713   
     98. A(C   2,H  14,H   6)           65.1919         0.092936   
     99. A(C   3,H  14,C   4)           31.6088         0.110518   
    100. D(C   2,C   1,C   0,C   4)    -20.5007         0.011488   
    101. D(H   7,C   1,C   0,H   5)    -26.0979         0.011488   
    102. D(C   2,C   1,C   0,H   5)     97.3288         0.011488   
    103. D(C   2,C   1,C   0,H   6)   -142.4092         0.011488   
    104. D(C   2,C   1,C   0,H  14)    -66.4671         0.011488   
    105. D(H   7,C   1,C   0,H   6)     94.1641         0.011488   
    106. D(H   7,C   1,C   0,C   4)   -143.9274         0.011488   
    107. D(H  10,C   2,C   1,C   0)    -97.1516         0.011462   
    108. D(C   3,C   2,C   1,C   0)     20.5933         0.011462   
    109. D(H   9,C   2,C   1,H   8)     25.4020         0.011462   
    110. D(C   3,C   2,C   1,H   8)    -96.7888         0.011462   
    111. D(H   9,C   2,C   1,H   7)    -93.7470         0.011462   
    112. D(C   3,C   2,C   1,H   7)    144.0622         0.011462   
    113. D(H   9,C   2,C   1,C   0)    142.7842         0.011462   
    114. D(C   4,C   3,C   2,H  14)    -75.6959         0.014431   
    115. D(C   4,C   3,C   2,H  10)    106.0322         0.014431   
    116. D(H  11,C   3,C   2,H  14)    107.7987         0.014431   
    117. D(H  11,C   3,C   2,C   1)    170.1479         0.014431   
    118. D(H  11,C   3,C   2,H   9)     48.2471         0.014431   
    119. D(H  11,C   3,C   2,H  10)    -70.4732         0.014431   
    120. D(C   4,C   3,C   2,C   1)    -13.3467         0.014431   
    121. D(C   4,C   3,C   2,H   9)   -135.2475         0.014431   
    122. D(H  12,C   4,C   0,C   1)   -170.0756         0.014520   
    123. D(C   0,C   4,C   3,H  11)    176.6177         0.052187   
    124. D(C   0,C   4,C   3,C   2)      0.1701         0.052187   
    125. D(C   3,C   4,C   0,H   5)   -106.3986         0.014520   
    126. D(H  12,C   4,C   3,H  14)     88.1538         0.052187   
    127. D(H  12,C   4,C   0,H   5)     70.4402         0.014520   
    128. D(C   3,C   4,C   0,H   6)    134.7563         0.014520   
    129. D(H  14,C   4,C   3,C   2)     95.2379         0.052187   
    130. D(C   3,C   4,C   0,C   1)     13.0856         0.014520   
    131. D(H  12,C   4,C   0,H   6)    -48.4049         0.014520   
    132. D(H  12,C   4,C   3,H  11)     -0.1606         0.052187   
    133. D(H  12,C   4,C   3,C   2)   -176.6082         0.052187   
    134. D(C   0,C   4,C   3,H  14)    -95.0679         0.052187   
    135. D(C   3,C   4,C   0,H  14)     78.3591         0.014520   
    136. D(H  14,H   6,C   0,H   5)   -161.6082         0.132687   
    137. D(H  14,H   6,C   0,C   4)    -41.0502         0.132687   
    138. D(H  14,H   6,C   0,C   1)     75.0938         0.132687   
    139. D(H  14,H   8,C   1,H   7)   -178.7245         0.121323   
    140. D(H  14,H   8,C   1,C   2)     58.7945         0.121323   
    141. D(H  14,H   8,C   1,C   0)    -56.3056         0.121323   
    142. D(H  14,H  11,C   3,C   4)     74.8144         0.130089   
    143. D(H  14,H  11,C   3,C   2)   -109.1370         0.130089   
    144. D(H  14,H  12,C   4,C   0)    106.4832         0.130029   
    145. D(H  14,H  12,C   4,C   3)    -77.0902         0.130029   
    146. D(O  13,H  14,C   2,H  10)   -173.6415         0.010000   
    147. D(C   0,H  14,H  12,C   4)    -33.3151         0.010000   
    148. D(O  13,H  14,C   2,C   3)   -178.4746         0.010000   
    149. D(H  12,H  14,C   0,C   1)    142.2253         0.010000   
    150. D(C   0,H  14,H  11,C   3)    -15.1581         0.010000   
    151. D(H   8,H  14,H  11,C   3)     25.1943         0.010000   
    152. D(C   3,H  14,C   0,H   5)    -54.2458         0.010000   
    153. D(C   3,H  14,C   0,C   4)    -40.7660         0.010000   
    154. D(C   2,H  14,H   8,C   1)    -36.3111         0.010000   
    155. D(C   3,H  14,C   0,H   6)   -169.8272         0.010000   
    156. D(O  13,H  14,H  12,C   4)   -141.4704         0.010000   
    157. D(O  13,H  14,C   2,C   1)     63.4107         0.010000   
    158. D(H   6,H  14,H  12,C   4)    -58.4384         0.010000   
    159. D(O  13,H  14,C   2,H   9)    -51.4307         0.010000   
    160. D(C   3,H  14,C   0,C   1)     75.2215         0.010000   
    161. D(C   4,H  14,C   2,C   1)    -76.6219         0.010000   
    162. D(C   4,H  14,C   0,H   6)   -129.0612         0.010000   
    163. D(H  11,H  14,H   8,C   1)    -28.4995         0.010000   
    164. D(H  12,H  14,H   8,C   1)     26.1772         0.010000   
    165. D(C   4,H  14,C   0,H   5)    -13.4798         0.010000   
    166. D(C   4,H  14,C   0,C   1)    115.9875         0.010000   
    167. D(C   2,H  14,H   6,C   0)    -22.2936         0.010000   
    168. D(O  13,H  14,C   0,H   6)     15.1331         0.010000   
    169. D(H  11,H  14,H   6,C   0)     16.6642         0.010000   
    170. D(O  13,H  14,C   0,H   5)    130.7146         0.010000   
    171. D(H  12,H  14,H   6,C   0)     60.6859         0.010000   
    172. D(C   3,H  14,H   6,C   0)      8.1892         0.010000   
    173. D(O  13,H  14,C   0,C   4)    144.1944         0.010000   
    174. D(O  13,H  14,C   0,C   1)    -99.8181         0.010000   
    175. D(H   8,H  14,C   4,C   0)     27.8490         0.010000   
    176. D(H  11,H  14,C   4,H  12)    -98.9567         0.010000   
    177. D(H  11,H  14,C   4,C   0)    135.5749         0.010000   
    178. D(H  12,H  14,C   4,C   3)    124.2952         0.010000   
    179. D(H  12,H  14,C   4,C   0)   -125.4685         0.010000   
    180. D(C   3,H  14,C   4,C   0)    110.2363         0.010000   
    181. D(O  13,H  14,C   4,H  12)     62.1629         0.010000   
    182. D(O  13,H  14,C   4,C   3)   -173.5419         0.010000   
    183. D(O  13,H  14,C   4,C   0)    -63.3056         0.010000   
    184. D(C   0,H  14,C   3,C   4)     37.0324         0.010000   
    185. D(C   3,H  14,C   4,H  12)   -124.2952         0.010000   
    186. D(C   0,H  14,C   3,C   2)    -72.5519         0.010000   
    187. D(H   8,H  14,C   3,H  11)   -152.4206         0.010000   
    188. D(H   8,H  14,C   3,C   4)     83.6801         0.010000   
    189. D(H  11,H  14,C   4,C   3)     25.3385         0.010000   
    190. D(H   8,H  14,C   3,C   2)    -25.9042         0.010000   
    191. D(H  11,H  14,C   3,C   4)   -123.8992         0.010000   
    192. D(O  13,H  14,H   6,C   0)   -167.7739         0.010000   
    193. D(C   4,H  14,H   6,C   0)     32.4204         0.010000   
    194. D(H  11,H  14,C   3,C   2)    126.5164         0.010000   
    195. D(H  12,H  14,C   3,H  11)     98.2520         0.010000   
    196. D(H  12,H  14,C   3,C   4)    -25.6472         0.010000   
    197. D(H   8,H  14,H   6,C   0)    -68.9632         0.010000   
    198. D(H  12,H  14,C   3,C   2)   -135.2315         0.010000   
    199. D(O  13,H  14,H   8,C   1)    164.1293         0.010000   
    200. D(C   4,H  14,H   8,C   1)     16.1060         0.010000   
    201. D(C   3,H  14,H   8,C   1)    -18.3635         0.010000   
    202. D(C   4,H  14,C   3,H  11)    123.8992         0.010000   
    203. D(C   4,H  14,C   3,C   2)   -109.5843         0.010000   
    204. D(C   0,H  14,H   8,C   1)     35.5797         0.010000   
    205. D(H   6,H  14,H   8,C   1)     64.3253         0.010000   
    206. D(H  12,H  14,C   2,C   1)    -84.3256         0.010000   
    207. D(O  13,H  14,H  11,C   3)    170.3646         0.010000   
    208. D(C   4,H  14,H  11,C   3)    -36.2350         0.010000   
    209. D(H  12,H  14,H  11,C   3)    -64.3643         0.010000   
    210. D(C   3,H  14,C   2,H  10)      4.8331         0.010000   
    211. D(C   3,H  14,C   2,H   9)    127.0440         0.010000   
    212. D(H   6,H  14,H  11,C   3)    -21.2644         0.010000   
    213. D(C   2,H  14,H  11,C   3)     32.6205         0.010000   
    214. D(C   3,H  14,C   2,C   1)   -118.1146         0.010000   
    215. D(C   3,H  14,H  12,C   4)     35.6616         0.010000   
    216. D(H  11,H  14,H  12,C   4)     63.0895         0.010000   
    217. D(H   8,H  14,H  12,C   4)    -24.4341         0.010000   
    218. D(C   4,H  14,C   2,H  10)     46.3258         0.010000   
    219. D(C   4,H  14,C   2,H   9)    168.5366         0.010000   
    220. D(C   2,H  14,H  12,C   4)     14.8782         0.010000   
    221. D(C   4,H  14,C   2,C   3)     41.4927         0.010000   
    -----------------------------------------------------------------

Number of atoms                         .... 15
Number of degrees of freedom            .... 221


         *************************************************************
         *                GEOMETRY OPTIMIZATION CYCLE   1            *
         *************************************************************
---------------------------------
CARTESIAN COORDINATES (ANGSTROEM)
---------------------------------
  C      1.887066    1.416024   -0.006601
  C      0.664001    2.293339    0.289395
  C     -0.556688    1.414176   -0.012521
  C      0.002142    0.022015    0.058376
  C      1.329534    0.024011    0.059293
  H      2.294372    1.602636   -1.003766
  H      2.700328    1.580894    0.699910
  H      0.664002    3.220892   -0.279651
  H      0.664018    2.563154    1.345612
  H     -1.377291    1.581298    0.685364
  H     -0.956581    1.599011   -1.013068
  H     -0.613643   -0.868027    0.047792
  H      1.948904   -0.863637    0.052059
  O      0.981952   -0.056119    3.342804
  H      0.726682   -0.072575    2.400159

----------------------------
CARTESIAN COORDINATES (A.U.)
----------------------------
  NO LB      ZA    FRAG     MASS         X           Y           Z
   0 C     6.0000    0    12.011    3.566038    2.675897   -0.012474
   1 C     6.0000    0    12.011    1.254781    4.333783    0.546876
   2 C     6.0000    0    12.011   -1.051987    2.672405   -0.023661
   3 C     6.0000    0    12.011    0.004049    0.041602    0.110315
   4 C     6.0000    0    12.011    2.512456    0.045374    0.112048
   5 H     1.0000    0     1.008    4.335735    3.028544   -1.896842
   6 H     1.0000    0     1.008    5.102880    2.987457    1.322639
   7 H     1.0000    0     1.008    1.254782    6.086605   -0.528464
   8 H     1.0000    0     1.008    1.254812    4.843658    2.542837
   9 H     1.0000    0     1.008   -2.602702    2.988219    1.295151
  10 H     1.0000    0     1.008   -1.807676    3.021692   -1.914422
  11 H     1.0000    0     1.008   -1.159616   -1.640334    0.090313
  12 H     1.0000    0     1.008    3.682895   -1.632038    0.098378
  13 O     8.0000    0    15.999    1.855620   -0.106050    6.316984
  14 H     1.0000    0     1.008    1.373230   -0.137147    4.535643

--------------------------------
INTERNAL COORDINATES (ANGSTROEM)
--------------------------------
 C      0   0   0     0.000000000000     0.00000000     0.00000000
 C      1   0   0     1.534008640182     0.00000000     0.00000000
 C      2   1   0     1.534328008629   105.58390794     0.00000000
 C      3   2   1     1.501808862812   103.05172775    20.59331786
 C      4   3   2     1.327393756542   111.76144396   346.65329439
 H      1   2   3     1.093188299432   112.05158682    97.32881509
 H      1   2   3     1.089832615940   112.54190332   217.59082741
 H      2   1   3     1.088194743755   112.74199354   236.57328834
 H      2   1   3     1.090134990446   109.17720125   117.54543320
 H      3   2   1     1.090120654178   112.64818508   142.78415950
 H      3   2   1     1.093239885002   111.97663795   262.84844560
 H      4   3   2     1.082348692410   123.37538996   170.14788818
 H      5   4   3     1.082400136323   124.81864121   183.39177499
 O      5   4   3     3.302828610436    83.99661305    94.28652839
 H     14   5   4     0.976735827507    21.32388756     6.28916559

---------------------------
INTERNAL COORDINATES (A.U.)
---------------------------
 C      0   0   0     0.000000000000     0.00000000     0.00000000
 C      1   0   0     2.898856217013     0.00000000     0.00000000
 C      2   1   0     2.899459735914   105.58390794     0.00000000
 C      3   2   1     2.838007456211   103.05172775    20.59331786
 C      4   3   2     2.508410671740   111.76144396   346.65329439
 H      1   2   3     2.065826498734   112.05158682    97.32881509
 H      1   2   3     2.059485175941   112.54190332   217.59082741
 H      2   1   3     2.056390046069   112.74199354   236.57328834
 H      2   1   3     2.060056580947   109.17720125   117.54543320
 H      3   2   1     2.060029489328   112.64818508   142.78415950
 H      3   2   1     2.065923981333   111.97663795   262.84844560
 H      4   3   2     2.045342610062   123.37538996   170.14788818
 H      5   4   3     2.045439824970   124.81864121   183.39177499
 O      5   4   3     6.241441541003    83.99661305    94.28652839
 H     14   5   4     1.845763219178    21.32388756     6.28916559

---------------------
BASIS SET INFORMATION
---------------------
There are 3 groups of distinct atoms

 Group   1 Type C   : 11s6p2d1f contracted to 5s3p2d1f pattern {62111/411/11/1}
 Group   2 Type H   : 5s2p1d contracted to 3s2p1d pattern {311/11/1}
 Group   3 Type O   : 11s6p2d1f contracted to 5s3p2d1f pattern {62111/411/11/1}

Atom   0C    basis set group =>   1
Atom   1C    basis set group =>   1
Atom   2C    basis set group =>   1
Atom   3C    basis set group =>   1
Atom   4C    basis set group =>   1
Atom   5H    basis set group =>   2
Atom   6H    basis set group =>   2
Atom   7H    basis set group =>   2
Atom   8H    basis set group =>   2
Atom   9H    basis set group =>   2
Atom  10H    basis set group =>   2
Atom  11H    basis set group =>   2
Atom  12H    basis set group =>   2
Atom  13O    basis set group =>   3
Atom  14H    basis set group =>   2
---------------------------------
AUXILIARY/J BASIS SET INFORMATION
---------------------------------
There are 3 groups of distinct atoms

 Group   1 Type C   : 12s5p4d2f1g contracted to 6s4p3d1f1g pattern {711111/2111/211/2/1}
 Group   2 Type H   : 5s2p1d contracted to 3s1p1d pattern {311/2/1}
 Group   3 Type O   : 12s5p4d2f1g contracted to 6s4p3d1f1g pattern {711111/2111/211/2/1}

Atom   0C    basis set group =>   1
Atom   1C    basis set group =>   1
Atom   2C    basis set group =>   1
Atom   3C    basis set group =>   1
Atom   4C    basis set group =>   1
Atom   5H    basis set group =>   2
Atom   6H    basis set group =>   2
Atom   7H    basis set group =>   2
Atom   8H    basis set group =>   2
Atom   9H    basis set group =>   2
Atom  10H    basis set group =>   2
Atom  11H    basis set group =>   2
Atom  12H    basis set group =>   2
Atom  13O    basis set group =>   3
Atom  14H    basis set group =>   2
---------------------------------
AUXILIARY/C BASIS SET INFORMATION
---------------------------------
There are 3 groups of distinct atoms

 Group   1 Type C   : 8s6p5d3f1g contracted to 8s6p4d3f1g pattern {11111111/111111/2111/111/1}
 Group   2 Type H   : 4s3p2d1f contracted to 4s3p2d1f pattern {1111/111/11/1}
 Group   3 Type O   : 8s6p5d3f1g contracted to 8s6p4d3f1g pattern {11111111/111111/2111/111/1}

Atom   0C    basis set group =>   1
Atom   1C    basis set group =>   1
Atom   2C    basis set group =>   1
Atom   3C    basis set group =>   1
Atom   4C    basis set group =>   1
Atom   5H    basis set group =>   2
Atom   6H    basis set group =>   2
Atom   7H    basis set group =>   2
Atom   8H    basis set group =>   2
Atom   9H    basis set group =>   2
Atom  10H    basis set group =>   2
Atom  11H    basis set group =>   2
Atom  12H    basis set group =>   2
Atom  13O    basis set group =>   3
Atom  14H    basis set group =>   2


           ************************************************************
           *        Program running with 8 parallel MPI-processes     *
           *              working on a common directory               *
           ************************************************************
------------------------------------------------------------------------------
                             ORCA STARTUP CALCULATIONS
                           -- RI-GTO INTEGRALS CHOSEN --
------------------------------------------------------------------------------
------------------------------------------------------------------------------
                   ___                                                        
                  /   \      - P O W E R E D   B Y -                         
                 /     \                                                     
                 |  |  |   _    _      __       _____    __    __             
                 |  |  |  | |  | |    /  \     |  _  \  |  |  /  |          
                  \  \/   | |  | |   /    \    | | | |  |  | /  /          
                 / \  \   | |__| |  /  /\  \   | |_| |  |  |/  /          
                |  |  |   |  __  | /  /__\  \  |    /   |      \           
                |  |  |   | |  | | |   __   |  |    \   |  |\   \          
                \     /   | |  | | |  |  |  |  | |\  \  |  | \   \       
                 \___/    |_|  |_| |__|  |__|  |_| \__\ |__|  \__/        
                                                                              
                      - O R C A' S   B I G   F R I E N D -                    
                                      &                                       
                       - I N T E G R A L  F E E D E R -                       
                                                                              
 v1 FN, 2020, v2 2021, v3 2022-2024                                           
------------------------------------------------------------------------------


----------------------
SHARK INTEGRAL PACKAGE
----------------------

Number of atoms                             ...     15
Number of basis functions                   ...    312
Number of shells                            ...    120
Maximum angular momentum                    ...      3
Integral batch strategy                     ... SHARK/LIBINT Hybrid
RI-J (if used) integral strategy            ... SPLIT-RIJ (Revised 2003 algorithm where possible)
Printlevel                                  ...      1
Contraction scheme used                     ... SEGMENTED contraction
Prescreening option                         ... SCHWARTZ
   Thresh                                   ... 2.500e-11
   Tcut                                     ... 2.500e-12
   Tpresel                                  ... 2.500e-12 
Coulomb Range Separation                    ... NOT USED
Exchange Range Separation                   ... NOT USED
Multipole approximations                    ... NOT USED
Finite Nucleus Model                        ... NOT USED
CABS basis                                  ... NOT available
Auxiliary Coulomb fitting basis             ... AVAILABLE
   # of basis functions in Aux-J            ...    393
   # of shells in Aux-J                     ...    135
   Maximum angular momentum in Aux-J        ...      4
Auxiliary J/K fitting basis                 ... NOT available
Auxiliary Correlation fitting basis         ... AVAILABLE
   # of basis functions in Aux-C            ...    726
   # of shells in Aux-C                     ...    222
   Maximum angular momentum in Aux-C        ...      4
Auxiliary 'external' fitting basis          ... NOT available

Checking pre-screening integrals            ... done (  0.0 sec) Dimension = 120
   => SHARK Basis and OBASIS are compatible. Storing Pre-screening
Shell pair information
Shell pair cut-off parameter TPreSel        ...   2.5e-12
Total number of shell pairs                 ...      7260
Shell pairs after pre-screening             ...      6765
Total number of primitive shell pairs       ...     18687
Primitive shell pairs kept                  ...     13962
          la=0 lb=0:   1513 shell pairs
          la=1 lb=0:   1927 shell pairs
          la=1 lb=1:    641 shell pairs
          la=2 lb=0:   1086 shell pairs
          la=2 lb=1:    707 shell pairs
          la=2 lb=2:    217 shell pairs
          la=3 lb=0:    320 shell pairs
          la=3 lb=1:    211 shell pairs
          la=3 lb=2:    122 shell pairs
          la=3 lb=3:     21 shell pairs

Checking whether 4 symmetric matrices of dimension 312 fit in memory
:Max Core in MB      =  10000.00
 MB in use           =     11.74
 MB left             =   9988.26
 MB needed           =      1.49
 Data fit in memory  = YES
Calculating RI/J V-Matrix + Cholesky decomp.... done (  0.1 sec)
Calculating RI/C V-Matrix + Cholesky decomp.... done (  0.0 sec)
Calculating Nuclear repulsion               ... done (  0.0 sec) ENN=    226.881053294115 Eh

Diagonalization of the overlap matrix:
Smallest eigenvalue                        ... 7.257e-05
Time for diagonalization                   ...    0.042 sec
Threshold for overlap eigenvalues          ... 1.000e-07
Number of eigenvalues below threshold      ... 0
Time for construction of square roots      ...    0.058 sec
Total time needed                          ...    0.102 sec

-------------------
DFT GRID GENERATION
-------------------

General Integration Accuracy     IntAcc      ... 4.388
Radial Grid Type                 RadialGrid  ... OptM3 with GC (2021)
Angular Grid (max. ang.)         AngularGrid ... 4 (Lebedev-302)
Angular grid pruning method      GridPruning ... 4 (adaptive)
Weight generation scheme         WeightScheme... mBecke (2022)
Basis function cutoff            BFCut       ... 1.0000e-11
Integration weight cutoff        WCut        ... 1.0000e-14
Partially contracted basis set               ... off
Rotationally invariant grid construction     ... off
Angular grids for H and He will be reduced by one unit

Total number of grid points                  ...    65072
Total number of batches                      ...     1024
Average number of points per batch           ...       63
Average number of grid points per atom       ...     4338

--------------------
COSX GRID GENERATION
--------------------

GRIDX 1
-------
General Integration Accuracy     IntAcc      ... 3.816
Radial Grid Type                 RadialGrid  ... OptM3 with GC (2021)
Angular Grid (max. ang.)         AngularGrid ... 1 (Lebedev-50)
Angular grid pruning method      GridPruning ... 4 (adaptive)
Weight generation scheme         WeightScheme... mBecke (2022)
Basis function cutoff            BFCut       ... 1.0000e-11
Integration weight cutoff        WCut        ... 1.0000e-14
Partially contracted basis set               ... on
Rotationally invariant grid construction     ... off
Angular grids for H and He will be reduced by one unit

Total number of grid points                  ...     8375
Total number of batches                      ...       75
Average number of points per batch           ...      111
Average number of grid points per atom       ...      558
UseSFitting                                  ... on

GRIDX 2
-------
General Integration Accuracy     IntAcc      ... 4.020
Radial Grid Type                 RadialGrid  ... OptM3 with GC (2021)
Angular Grid (max. ang.)         AngularGrid ... 2 (Lebedev-110)
Angular grid pruning method      GridPruning ... 4 (adaptive)
Weight generation scheme         WeightScheme... mBecke (2022)
Basis function cutoff            BFCut       ... 1.0000e-11
Integration weight cutoff        WCut        ... 1.0000e-14
Partially contracted basis set               ... on
Rotationally invariant grid construction     ... off
Angular grids for H and He will be reduced by one unit

Total number of grid points                  ...    17691
Total number of batches                      ...      148
Average number of points per batch           ...      119
Average number of grid points per atom       ...     1179
UseSFitting                                  ... on

GRIDX 3
-------
General Integration Accuracy     IntAcc      ... 4.338
Radial Grid Type                 RadialGrid  ... OptM3 with GC (2021)
Angular Grid (max. ang.)         AngularGrid ... 3 (Lebedev-194)
Angular grid pruning method      GridPruning ... 4 (adaptive)
Weight generation scheme         WeightScheme... mBecke (2022)
Basis function cutoff            BFCut       ... 1.0000e-11
Integration weight cutoff        WCut        ... 1.0000e-14
Partially contracted basis set               ... on
Rotationally invariant grid construction     ... off
Angular grids for H and He will be reduced by one unit

Total number of grid points                  ...    38679
Total number of batches                      ...      311
Average number of points per batch           ...      124
Average number of grid points per atom       ...     2579
UseSFitting                                  ... on
Grids setup in   0.6 sec
Initializing property integral containers    ... done (  0.0 sec)

SHARK setup successfully completed in   1.4 seconds

Maximum memory used throughout the entire STARTUP-calculation: 24.9 MB


           ************************************************************
           *        Program running with 8 parallel MPI-processes     *
           *              working on a common directory               *
           ************************************************************
-------------------------------------------------------------------------------
                                 ORCA GUESS
                   Start orbitals & Density for SCF / CASSCF
-------------------------------------------------------------------------------

------------
SCF SETTINGS
------------
Hamiltonian:
 Density Functional     Method          .... DFT(GTOs)
 Exchange Functional    Exchange        .... PBE
   PBE kappa parameter   XKappa         ....  0.804000
   PBE mue parameter    XMuePBE         ....  0.219520
 Correlation Functional Correlation     .... P86
 LDA part of GGA corr.  LDAOpt          .... VWN-5
 Gradients option       PostSCFGGA      .... off
 Hybrid DFT is turned on
   Fraction HF Exchange ScalHFX         ....  0.690000
   Scaling of DF-GGA-X  ScalDFX         ....  0.310000
   Scaling of DF-GGA-C  ScalDFC         ....  0.422400
   Scaling of DF-LDA-C  ScalLDAC        ....  0.422400
   Perturbative correction              ....  1.000000
 RI-approximation to the Coulomb term is turned on
   Number of AuxJ basis functions       .... 393
   RIJ-COSX (HFX calculated with COS-X)).... on


General Settings:
 Integral files         IntName         .... opt
 Hartree-Fock type      HFTyp           .... UHF
 Total Charge           Charge          ....    0
 Multiplicity           Mult            ....    2
 Number of Electrons    NEL             ....   47
 Basis Dimension        Dim             ....  312
 Nuclear Repulsion      ENuc            ....    226.8810532941 Eh

Convergence Acceleration:
 AO-DIIS                CNVDIIS         .... on
   Start iteration      DIISMaxIt       ....    12
   Startup error        DIISStart       ....  0.200000
   # of expansion vecs  DIISMaxEq       ....     5
   Bias factor          DIISBfac        ....   1.050
   Max. coefficient     DIISMaxC        ....  10.000
 MO-DIIS                CNVKDIIS        .... off
 Trust-Rad. Augm. Hess. CNVTRAH         .... auto
   Auto Start mean grad. ratio tolernc. ....  1.125000
   Auto Start start iteration           ....    50
   Auto Start num. interpolation iter.  ....    10
   Max. Number of Micro iterations      ....    24
   Max. Number of Macro iterations      .... Maxiter - #DIIS iter
   Number of Davidson start vectors     ....     2
   Converg. threshold    (grad. norm)   ....   1.000e-05
   Grad. Scal. Fac. for Micro threshold ....   0.100
   Minimum threshold for Micro iter.    ....   1.000e-02
   NR start threshold (gradient norm)   ....   1.000e-04
   Initial trust radius                 ....   0.400
   Minimum AH scaling param. (alpha)    ....   1.000
   Maximum AH scaling param. (alpha)    .... 1000.000
   Quad. conv. algorithm                .... NR
   White noise on init. David. guess    .... on
   Maximum white noise                  ....   0.010
   Pseudo random numbers                .... off
   Inactive MOs                         .... canonical
   Orbital update algorithm             .... Taylor
   Preconditioner                       .... Diag
   Full preconditioner red. dimension   ....   250
 SOSCF                 CNVSOSCF           .... on
   Start iteration     SOSCFMaxIt         ....   150
   Startup grad/error  SOSCFStart         ....  0.003300
   Hessian update      SOSCFHessUp        .... L-BFGS
   Autom. constraints  SOSCFAutoConstrain .... off
 Level Shifting         CNVShift        .... on
   Level shift para.    LevelShift      ....    0.2500
   Turn off err/grad.   ShiftErr        ....    0.0010
 Zerner damping         CNVZerner       .... off
 Static damping         CNVDamp         .... on
   Fraction old density DampFac         ....    0.7000
   Max. Damping (<1)    DampMax         ....    0.9800
   Min. Damping (>=0)   DampMin         ....    0.0000
   Turn off err/grad.   DampErr         ....    0.1000

SCF Procedure:
 Maximum # iterations   MaxIter         ....   125
 SCF integral mode      SCFMode         .... Direct
   Integral package                     .... SHARK and LIBINT hybrid scheme
 Reset frequency        DirectResetFreq ....    20
 Integral Threshold     Thresh          ....  2.500e-11 Eh
 Primitive CutOff       TCut            ....  2.500e-12 Eh

Convergence Tolerance:
 Convergence Check Mode ConvCheckMode   .... Total+1el-Energy
 Convergence forced     ConvForced      .... 0
 Energy Change          TolE            ....  1.000e-08 Eh
 1-El. energy change                    ....  1.000e-05 Eh
 Orbital Gradient       TolG            ....  1.000e-05
 Orbital Rotation angle TolX            ....  1.000e-05
 DIIS Error             TolErr          ....  5.000e-07

------------------------------
INITIAL GUESS: MODEL POTENTIAL
------------------------------
Loading Hartree-Fock densities                     ... done
Calculating cut-offs                               ... done
Initializing the effective Hamiltonian             ... done
Setting up the integral package (SHARK)            ... done
Starting the Coulomb interaction                   ... done (   0.2 sec)
Making the grid                                    ... done (   0.1 sec)
Mapping shells                                     ... done
Starting the XC term evaluation                    ... done (   0.0 sec)
  promolecular density results
     # of electrons  =     46.993061351
     EX              =    -36.307240063
     EC              =      0.025713131
     EX+EC           =    -36.281526932
Transforming the Hamiltonian                       ... done (   0.0 sec)
Diagonalizing the Hamiltonian                      ... done (   0.0 sec)
Back transforming the eigenvectors                 ... done (   0.0 sec)
Now organizing SCF variables                       ... done
                      ------------------
                      INITIAL GUESS DONE (   0.3 sec)
                      ------------------
             **** ENERGY FILE WAS UPDATED (opt.en.tmp) ****
Finished Guess after   0.9 sec
Maximum memory used throughout the entire GUESS-calculation: 17.7 MB


           ************************************************************
           *        Program running with 8 parallel MPI-processes     *
           *              working on a common directory               *
           ************************************************************

-------------------------------------------------------------------------------------------
                                      ORCA LEAN-SCF
                              memory conserving SCF solver
-------------------------------------------------------------------------------------------

----------------------------------------D-I-I-S--------------------------------------------
Iteration    Energy (Eh)           Delta-E    RMSDP     MaxDP     DIISErr   Damp  Time(sec)
-------------------------------------------------------------------------------------------
               ***  Starting incremental Fock matrix formation  ***
    1    -269.6398029958165807     0.00e+00  4.28e-03  1.22e-01  2.40e-01  0.700   1.5
Warning: op=1 Small HOMO/LUMO gap (   0.017) - skipping pre-diagonalization
         Will do a full diagonalization
    2    -269.7939679322749953    -1.54e-01  2.63e-03  6.57e-02  1.04e-01  0.700   1.0
                               ***Turning on AO-DIIS***
    3    -269.8639331665974623    -7.00e-02  9.76e-04  2.57e-02  3.33e-02  0.700   0.9
    4    -269.9118171205875569    -4.79e-02  3.75e-03  1.05e-01  2.38e-02  0.000   0.9
    5    -270.0683732567442803    -1.57e-01  1.98e-03  4.38e-02  4.59e-02  0.000   0.9
    6    -270.0913864848232606    -2.30e-02  1.55e-03  3.48e-02  2.79e-02  0.000   0.9
    7    -270.1057038684474492    -1.43e-02  5.85e-04  1.45e-02  1.94e-02  0.000   0.9
    8    -270.1098183298777258    -4.11e-03  6.59e-04  1.16e-02  1.14e-02  0.000   0.9
    9    -270.1124862467200956    -2.67e-03  3.18e-04  7.94e-03  8.51e-03  0.000   0.9
   10    -270.1133294518974708    -8.43e-04  2.12e-04  5.22e-03  6.40e-03  0.000   0.8
   11    -270.1137355791155414    -4.06e-04  1.34e-04  2.98e-03  4.35e-03  0.000   0.8
                              *** Initializing SOSCF ***
---------------------------------------S-O-S-C-F--------------------------------------
Iteration    Energy (Eh)           Delta-E    RMSDP     MaxDP     MaxGrad    Time(sec)
--------------------------------------------------------------------------------------
   12    -270.1139177512832248    -1.82e-04  7.77e-05  1.88e-03  2.65e-03     0.9
               *** Restarting incremental Fock matrix formation ***
   13    -270.1140372426802969    -1.19e-04  4.81e-05  6.59e-04  1.60e-03     1.4
   14    -270.1140526315977013    -1.54e-05  7.50e-05  1.15e-03  1.10e-03     1.1
   15    -270.1140690985937454    -1.65e-05  3.01e-05  5.03e-04  4.26e-04     1.1
   16    -270.1140729887018779    -3.89e-06  2.41e-05  4.19e-04  3.46e-04     1.1
   17    -270.1140753743917458    -2.39e-06  1.62e-05  2.97e-04  2.31e-04     1.1
   18    -270.1140763897864190    -1.02e-06  1.49e-05  3.24e-04  1.68e-04     1.1
   19    -270.1140771717239204    -7.82e-07  1.56e-05  3.21e-04  1.55e-04     1.0
   20    -270.1140777740847625    -6.02e-07  7.99e-06  1.18e-04  1.06e-04     1.1
   21    -270.1140779317044007    -1.58e-07  3.08e-06  6.37e-05  4.40e-05     1.0
   22    -270.1140779576841169    -2.60e-08  2.28e-06  4.87e-05  4.43e-05     0.9
   23    -270.1140779783470407    -2.07e-08  4.30e-06  1.44e-04  4.44e-05     0.9
   24    -270.1140780351746571    -5.68e-08  9.96e-06  4.01e-04  4.46e-05     0.9
   25    -270.1140781640176556    -1.29e-07  2.33e-05  9.89e-04  4.46e-05     1.0
   26    -270.1140784480268167    -2.84e-07  5.89e-05  2.55e-03  4.44e-05     1.0
   27    -270.1140791356525597    -6.88e-07  1.44e-04  6.34e-03  7.53e-05     1.1
   28    -270.1140807355369589    -1.60e-06  2.95e-04  1.32e-02  1.40e-04     1.1
   29    -270.1140835147008374    -2.78e-06  2.36e-04  1.06e-02  5.30e-04     1.1
   30    -270.1140871113549338    -3.60e-06  4.19e-04  1.85e-02  7.25e-04     1.1
   31    -270.1140956173588847    -8.51e-06  2.99e-05  6.79e-04  7.02e-04     1.1
   32    -270.1140968607703599    -1.24e-06  2.13e-04  9.10e-03  4.32e-04     1.1
               *** Restarting incremental Fock matrix formation ***
   33    -270.1140991096100379    -2.25e-06  1.40e-04  5.79e-03  3.34e-04     1.4
   34    -270.1141000871745064    -9.78e-07  1.51e-04  6.00e-03  5.69e-04     1.1
   35    -270.1141016274992808    -1.54e-06  1.77e-04  6.81e-03  4.62e-04     1.1
   36    -270.1141026684648523    -1.04e-06  1.76e-04  6.45e-03  3.55e-04     1.1
   37    -270.1141035964150205    -9.28e-07  3.50e-04  1.18e-02  6.35e-05     1.1
   38    -270.1141025691608775     1.03e-06  2.10e-04  6.91e-03  6.48e-04     1.1
   39    -270.1141039180596408    -1.35e-06  6.59e-05  2.22e-03  3.69e-05     1.1
   40    -270.1141039852257109    -6.72e-08  1.56e-04  5.07e-03  1.62e-05     1.0
   41    -270.1141039360929881     4.91e-08  2.75e-05  8.70e-04  9.87e-05     1.1
   42    -270.1141039886882709    -5.26e-08  1.70e-05  5.36e-04  1.86e-05     1.0
   43    -270.1141039814541500     7.23e-09  1.91e-05  5.99e-04  5.69e-06     0.9
                 **** Energy Check signals convergence ****

               *****************************************************
               *                     SUCCESS                       *
               *           SCF CONVERGED AFTER  43 CYCLES          *
               *****************************************************

Recomputing exchange energy using gridx3       ... done (    2.033 sec)
Old exchange energy                            :    -25.809353910 Eh
New exchange energy                            :    -25.809394491 Eh
Exchange energy change after final integration :     -0.000040581 Eh
Total energy after final integration           :   -270.114144549 Eh
             **** ENERGY FILE WAS UPDATED (opt.en.tmp) ****

----------------
TOTAL SCF ENERGY
----------------

Total Energy       :       -270.11414454885352 Eh           -7350.17955 eV

Components:
Nuclear Repulsion  :        226.88105329411499 Eh            6173.74733 eV
Electronic Energy  :       -496.99515726244516 Eh          -13523.92577 eV
One Electron Energy:       -815.09285935732464 Eh          -22179.80430 eV
Two Electron Energy:        318.09770209487948 Eh            8655.87853 eV

Virial components:
Potential Energy   :       -539.63595103555099 Eh          -14684.24076 eV
Kinetic Energy     :        269.52180648669741 Eh            7334.06121 eV
Virial Ratio       :          2.00219773705838

DFT components:
N(Alpha)           :       24.000033843389 electrons
N(Beta)            :       23.000033447933 electrons
N(Total)           :       47.000067291322 electrons
E(X)               :      -11.531007156678 Eh       
E(C)               :       -0.708050339644 Eh       
E(XC)              :      -12.239057496321 Eh       

---------------
SCF CONVERGENCE
---------------

  Last Energy change         ...   -7.2341e-09  Tolerance :   1.0000e-08
  Last MAX-Density change    ...    5.9917e-04  Tolerance :   1.0000e-07
  Last RMS-Density change    ...    1.9120e-05  Tolerance :   5.0000e-09
  Last DIIS Error            ...    2.6484e-03  Tolerance :   5.0000e-07
  Last Orbital Gradient      ...    5.6858e-06  Tolerance :   1.0000e-05
  Last Orbital Rotation      ...    3.5348e-03  Tolerance :   1.0000e-05


----------------------
UHF SPIN CONTAMINATION
----------------------

Warning: in a DFT calculation there is little theoretical justification to 
         calculate <S**2> as in Hartree-Fock theory. We will do it anyways
         but you should keep in mind that the values have only limited relevance

Expectation value of <S**2>     :     0.754610
Ideal value S*(S+1) for S=0.5   :     0.750000
Deviation                       :     0.004610

----------------
ORBITAL ENERGIES
----------------
                 SPIN UP ORBITALS
  NO   OCC          E(Eh)            E(eV) 
   0   1.0000     -20.056126      -545.7549 
   1   1.0000     -10.822753      -294.5021 
   2   1.0000     -10.821277      -294.4619 
   3   1.0000     -10.817557      -294.3607 
   4   1.0000     -10.816339      -294.3275 
   5   1.0000     -10.812590      -294.2255 
   6   1.0000      -1.226760       -33.3818 
   7   1.0000      -1.040677       -28.3183 
   8   1.0000      -0.883359       -24.0374 
   9   1.0000      -0.876141       -23.8410 
  10   1.0000      -0.718372       -19.5479 
  11   1.0000      -0.664340       -18.0776 
  12   1.0000      -0.624356       -16.9896 
  13   1.0000      -0.594934       -16.1890 
  14   1.0000      -0.578941       -15.7538 
  15   1.0000      -0.548712       -14.9312 
  16   1.0000      -0.506040       -13.7700 
  17   1.0000      -0.489641       -13.3238 
  18   1.0000      -0.459840       -12.5129 
  19   1.0000      -0.450000       -12.2451 
  20   1.0000      -0.449416       -12.2292 
  21   1.0000      -0.440914       -11.9979 
  22   1.0000      -0.437290       -11.8993 
  23   1.0000      -0.324444        -8.8286 
  24   0.0000       0.086429         2.3519 
  25   0.0000       0.092125         2.5069 
  26   0.0000       0.129088         3.5127 
  27   0.0000       0.133016         3.6195 
  28   0.0000       0.137088         3.7304 
  29   0.0000       0.156265         4.2522 
  30   0.0000       0.166247         4.5238 
  31   0.0000       0.169422         4.6102 
  32   0.0000       0.183593         4.9958 
  33   0.0000       0.212568         5.7843 
  34   0.0000       0.237286         6.4569 

                 SPIN DOWN ORBITALS
  NO   OCC          E(Eh)            E(eV) 
   0   1.0000     -20.022017      -544.8268 
   1   1.0000     -10.822796      -294.5033 
   2   1.0000     -10.821304      -294.4626 
   3   1.0000     -10.817558      -294.3607 
   4   1.0000     -10.816332      -294.3274 
   5   1.0000     -10.812592      -294.2256 
   6   1.0000      -1.103138       -30.0179 
   7   1.0000      -1.040562       -28.3151 
   8   1.0000      -0.883400       -24.0385 
   9   1.0000      -0.876143       -23.8411 
  10   1.0000      -0.718360       -19.5476 
  11   1.0000      -0.664346       -18.0778 
  12   1.0000      -0.624318       -16.9885 
  13   1.0000      -0.588531       -16.0147 
  14   1.0000      -0.549746       -14.9593 
  15   1.0000      -0.506124       -13.7723 
  16   1.0000      -0.489628       -13.3235 
  17   1.0000      -0.450027       -12.2459 
  18   1.0000      -0.449701       -12.2370 
  19   1.0000      -0.440989       -11.9999 
  20   1.0000      -0.437301       -11.8996 
  21   1.0000      -0.421240       -11.4625 
  22   1.0000      -0.323922        -8.8144 
  23   0.0000       0.008959         0.2438 
  24   0.0000       0.090556         2.4642 
  25   0.0000       0.093600         2.5470 
  26   0.0000       0.129974         3.5368 
  27   0.0000       0.134553         3.6614 
  28   0.0000       0.137600         3.7443 
  29   0.0000       0.156489         4.2583 
  30   0.0000       0.166481         4.5302 
  31   0.0000       0.173008         4.7078 
  32   0.0000       0.184747         5.0272 
  33   0.0000       0.215195         5.8557 
*Only the first 10 virtual orbitals were printed.

                    ********************************
                    * MULLIKEN POPULATION ANALYSIS *
                    ********************************

--------------------------------------------
MULLIKEN ATOMIC CHARGES AND SPIN POPULATIONS
--------------------------------------------
   0 C :   -0.066351   -0.000879
   1 C :   -0.161595   -0.000487
   2 C :   -0.067347    0.000042
   3 C :   -0.202543    0.001554
   4 C :   -0.198920   -0.001769
   5 H :    0.071659   -0.000158
   6 H :    0.080812    0.000061
   7 H :    0.079484   -0.000028
   8 H :    0.078392   -0.000464
   9 H :    0.075894    0.000017
  10 H :    0.071076    0.000326
  11 H :    0.123571   -0.000073
  12 H :    0.125510    0.000223
  13 O :   -0.270202    1.029311
  14 H :    0.260559   -0.027677
Sum of atomic charges         :   -0.0000000
Sum of atomic spin populations:    1.0000000

-----------------------------------------------------
MULLIKEN REDUCED ORBITAL CHARGES AND SPIN POPULATIONS
-----------------------------------------------------
CHARGE
  0 C s       :     3.080481  s :     3.080481
      pz      :     1.031730  p :     2.868465
      px      :     0.964891
      py      :     0.871843
      dz2     :     0.017304  d :     0.111277
      dxz     :     0.031155
      dyz     :     0.016305
      dx2y2   :     0.025052
      dxy     :     0.021461
      f0      :     0.000727  f :     0.006127
      f+1     :     0.000802
      f-1     :     0.000525
      f+2     :     0.000439
      f-2     :     0.000824
      f+3     :     0.001463
      f-3     :     0.001348

  1 C s       :     3.145027  s :     3.145027
      pz      :     1.053419  p :     2.907317
      px      :     0.873798
      py      :     0.980100
      dz2     :     0.022013  d :     0.103087
      dxz     :     0.015195
      dyz     :     0.018914
      dx2y2   :     0.026688
      dxy     :     0.020277
      f0      :     0.000880  f :     0.006163
      f+1     :     0.000554
      f-1     :     0.000507
      f+2     :     0.000557
      f-2     :     0.000795
      f+3     :     0.001442
      f-3     :     0.001429

  2 C s       :     3.082920  s :     3.082920
      pz      :     1.031640  p :     2.867088
      px      :     0.962272
      py      :     0.873176
      dz2     :     0.017312  d :     0.111215
      dxz     :     0.030610
      dyz     :     0.016469
      dx2y2   :     0.025315
      dxy     :     0.021508
      f0      :     0.000735  f :     0.006124
      f+1     :     0.000790
      f-1     :     0.000525
      f+2     :     0.000444
      f-2     :     0.000823
      f+3     :     0.001462
      f-3     :     0.001345

  3 C s       :     3.180533  s :     3.180533
      pz      :     0.959123  p :     2.901037
      px      :     0.963197
      py      :     0.978717
      dz2     :     0.004301  d :     0.113184
      dxz     :     0.024533
      dyz     :     0.008016
      dx2y2   :     0.030490
      dxy     :     0.045844
      f0      :     0.001171  f :     0.007790
      f+1     :     0.000551
      f-1     :     0.000844
      f+2     :     0.001056
      f-2     :     0.000297
      f+3     :     0.001426
      f-3     :     0.002444

  4 C s       :     3.180997  s :     3.180997
      pz      :     0.950587  p :     2.896326
      px      :     0.964976
      py      :     0.980763
      dz2     :     0.004305  d :     0.113794
      dxz     :     0.024771
      dyz     :     0.008169
      dx2y2   :     0.030601
      dxy     :     0.045948
      f0      :     0.001177  f :     0.007802
      f+1     :     0.000550
      f-1     :     0.000840
      f+2     :     0.001065
      f-2     :     0.000298
      f+3     :     0.001429
      f-3     :     0.002443

  5 H s       :     0.887107  s :     0.887107
      pz      :     0.018555  p :     0.039142
      px      :     0.011631
      py      :     0.008957
      dz2     :     0.000600  d :     0.002091
      dxz     :     0.000620
      dyz     :     0.000590
      dx2y2   :     0.000128
      dxy     :     0.000153

  6 H s       :     0.877529  s :     0.877529
      pz      :     0.013385  p :     0.039574
      px      :     0.016829
      py      :     0.009359
      dz2     :     0.000573  d :     0.002086
      dxz     :     0.000403
      dyz     :     0.000282
      dx2y2   :     0.000342
      dxy     :     0.000486

  7 H s       :     0.878975  s :     0.878975
      pz      :     0.011836  p :     0.039453
      px      :     0.009516
      py      :     0.018102
      dz2     :     0.000481  d :     0.002088
      dxz     :     0.000174
      dyz     :     0.000437
      dx2y2   :     0.000334
      dxy     :     0.000662

  8 H s       :     0.880074  s :     0.880074
      pz      :     0.020054  p :     0.039421
      px      :     0.008845
      py      :     0.010521
      dz2     :     0.000549  d :     0.002113
      dxz     :     0.000710
      dyz     :     0.000719
      dx2y2   :     0.000049
      dxy     :     0.000085

  9 H s       :     0.882268  s :     0.882268
      pz      :     0.013149  p :     0.039748
      px      :     0.017099
      py      :     0.009500
      dz2     :     0.000568  d :     0.002090
      dxz     :     0.000401
      dyz     :     0.000273
      dx2y2   :     0.000351
      dxy     :     0.000497

 10 H s       :     0.887825  s :     0.887825
      pz      :     0.018500  p :     0.039008
      px      :     0.011537
      py      :     0.008971
      dz2     :     0.000597  d :     0.002091
      dxz     :     0.000625
      dyz     :     0.000596
      dx2y2   :     0.000124
      dxy     :     0.000148

 11 H s       :     0.837696  s :     0.837696
      pz      :     0.009953  p :     0.036820
      px      :     0.010338
      py      :     0.016529
      dz2     :     0.000129  d :     0.001913
      dxz     :     0.000263
      dyz     :     0.000308
      dx2y2   :     0.000779
      dxy     :     0.000434

 12 H s       :     0.836026  s :     0.836026
      pz      :     0.009769  p :     0.036556
      px      :     0.010333
      py      :     0.016454
      dz2     :     0.000130  d :     0.001908
      dxz     :     0.000262
      dyz     :     0.000303
      dx2y2   :     0.000783
      dxy     :     0.000430

 13 O s       :     3.896073  s :     3.896073
      pz      :     1.403492  p :     4.362559
      px      :     1.130081
      py      :     1.828985
      dz2     :     0.006899  d :     0.011191
      dxz     :     0.002345
      dyz     :     0.001185
      dx2y2   :     0.000386
      dxy     :     0.000376
      f0      :     0.000145  f :     0.000379
      f+1     :     0.000046
      f-1     :     0.000045
      f+2     :     0.000031
      f-2     :     0.000016
      f+3     :     0.000049
      f-3     :     0.000047

 14 H s       :     0.648023  s :     0.648023
      pz      :     0.037947  p :     0.083762
      px      :     0.015127
      py      :     0.030688
      dz2     :     0.002906  d :     0.007656
      dxz     :     0.001694
      dyz     :     0.002745
      dx2y2   :     0.000107
      dxy     :     0.000204


SPIN
  0 C s       :    -0.000493  s :    -0.000493
      pz      :    -0.000400  p :    -0.000327
      px      :    -0.000040
      py      :     0.000113
      dz2     :    -0.000001  d :    -0.000055
      dxz     :    -0.000012
      dyz     :    -0.000039
      dx2y2   :    -0.000002
      dxy     :    -0.000000
      f0      :    -0.000002  f :    -0.000004
      f+1     :    -0.000000
      f-1     :     0.000000
      f+2     :    -0.000001
      f-2     :    -0.000001
      f+3     :    -0.000000
      f-3     :    -0.000000

  1 C s       :     0.000080  s :     0.000080
      pz      :    -0.000161  p :    -0.000597
      px      :     0.000044
      py      :    -0.000480
      dz2     :     0.000009  d :     0.000030
      dxz     :     0.000002
      dyz     :     0.000018
      dx2y2   :     0.000001
      dxy     :    -0.000001
      f0      :     0.000000  f :     0.000000
      f+1     :     0.000000
      f-1     :     0.000000
      f+2     :    -0.000000
      f-2     :     0.000000
      f+3     :     0.000000
      f-3     :     0.000000

  2 C s       :     0.000011  s :     0.000011
      pz      :     0.000114  p :     0.000035
      px      :     0.000011
      py      :    -0.000089
      dz2     :    -0.000007  d :    -0.000005
      dxz     :    -0.000011
      dyz     :     0.000013
      dx2y2   :    -0.000001
      dxy     :     0.000001
      f0      :    -0.000000  f :     0.000001
      f+1     :     0.000000
      f-1     :     0.000000
      f+2     :     0.000001
      f-2     :    -0.000000
      f+3     :     0.000000
      f-3     :     0.000000

  3 C s       :    -0.000080  s :    -0.000080
      pz      :     0.001637  p :     0.001656
      px      :     0.000082
      py      :    -0.000063
      dz2     :    -0.000003  d :    -0.000009
      dxz     :    -0.000025
      dyz     :     0.000005
      dx2y2   :    -0.000003
      dxy     :     0.000018
      f0      :    -0.000006  f :    -0.000013
      f+1     :    -0.000001
      f-1     :    -0.000001
      f+2     :    -0.000003
      f-2     :     0.000000
      f+3     :    -0.000001
      f-3     :    -0.000001

  4 C s       :     0.001111  s :     0.001111
      pz      :    -0.002478  p :    -0.002871
      px      :    -0.000331
      py      :    -0.000063
      dz2     :     0.000006  d :    -0.000010
      dxz     :    -0.000000
      dyz     :     0.000001
      dx2y2   :    -0.000001
      dxy     :    -0.000015
      f0      :    -0.000002  f :     0.000002
      f+1     :     0.000002
      f-1     :     0.000002
      f+2     :    -0.000001
      f-2     :    -0.000000
      f+3     :     0.000000
      f-3     :    -0.000000

  5 H s       :    -0.000156  s :    -0.000156
      pz      :    -0.000002  p :    -0.000002
      px      :     0.000001
      py      :    -0.000001
      dz2     :    -0.000000  d :    -0.000000
      dxz     :     0.000000
      dyz     :     0.000000
      dx2y2   :     0.000000
      dxy     :    -0.000000

  6 H s       :     0.000056  s :     0.000056
      pz      :     0.000010  p :     0.000005
      px      :    -0.000005
      py      :    -0.000000
      dz2     :    -0.000000  d :    -0.000000
      dxz     :     0.000000
      dyz     :     0.000000
      dx2y2   :    -0.000000
      dxy     :    -0.000000

  7 H s       :    -0.000030  s :    -0.000030
      pz      :     0.000002  p :     0.000002
      px      :    -0.000000
      py      :     0.000000
      dz2     :    -0.000000  d :    -0.000000
      dxz     :    -0.000000
      dyz     :    -0.000000
      dx2y2   :     0.000000
      dxy     :     0.000000

  8 H s       :    -0.000472  s :    -0.000472
      pz      :     0.000022  p :     0.000008
      px      :     0.000001
      py      :    -0.000014
      dz2     :    -0.000000  d :     0.000000
      dxz     :     0.000000
      dyz     :     0.000000
      dx2y2   :    -0.000000
      dxy     :     0.000000

  9 H s       :     0.000018  s :     0.000018
      pz      :     0.000005  p :    -0.000001
      px      :    -0.000003
      py      :    -0.000003
      dz2     :    -0.000000  d :    -0.000000
      dxz     :     0.000000
      dyz     :     0.000000
      dx2y2   :    -0.000000
      dxy     :    -0.000000

 10 H s       :     0.000334  s :     0.000334
      pz      :    -0.000007  p :    -0.000008
      px      :     0.000001
      py      :    -0.000002
      dz2     :    -0.000000  d :     0.000000
      dxz     :     0.000000
      dyz     :     0.000000
      dx2y2   :     0.000000
      dxy     :    -0.000000

 11 H s       :    -0.000072  s :    -0.000072
      pz      :     0.000003  p :    -0.000000
      px      :    -0.000004
      py      :     0.000001
      dz2     :    -0.000000  d :     0.000000
      dxz     :    -0.000000
      dyz     :     0.000001
      dx2y2   :    -0.000000
      dxy     :    -0.000000

 12 H s       :     0.000256  s :     0.000256
      pz      :    -0.000029  p :    -0.000029
      px      :    -0.000000
      py      :     0.000000
      dz2     :     0.000000  d :    -0.000004
      dxz     :    -0.000001
      dyz     :    -0.000002
      dx2y2   :    -0.000000
      dxy     :    -0.000000

 13 O s       :     0.026002  s :     0.026002
      pz      :     0.072402  p :     1.003136
      px      :     0.799491
      py      :     0.131243
      dz2     :    -0.000231  d :     0.000337
      dxz     :     0.000324
      dyz     :     0.000157
      dx2y2   :     0.000078
      dxy     :     0.000010
      f0      :    -0.000142  f :    -0.000164
      f+1     :    -0.000139
      f-1     :    -0.000011
      f+2     :     0.000031
      f-2     :     0.000001
      f+3     :     0.000048
      f-3     :     0.000047

 14 H s       :    -0.035739  s :    -0.035739
      pz      :    -0.001782  p :     0.006982
      px      :     0.009128
      py      :    -0.000364
      dz2     :     0.000212  d :     0.001080
      dxz     :     0.000767
      dyz     :     0.000020
      dx2y2   :     0.000084
      dxy     :    -0.000003



                     *******************************
                     * LOEWDIN POPULATION ANALYSIS *
                     *******************************

-------------------------------------------
LOEWDIN ATOMIC CHARGES AND SPIN POPULATIONS
-------------------------------------------
   0 C :   -0.018541   -0.000225
   1 C :    0.001257   -0.000120
   2 C :   -0.019849    0.000163
   3 C :   -0.017802    0.000482
   4 C :   -0.013252   -0.002282
   5 H :    0.017249   -0.000066
   6 H :    0.015245   -0.000050
   7 H :    0.008164   -0.000007
   8 H :    0.016153   -0.000167
   9 H :    0.013197    0.000046
  10 H :    0.017416    0.000128
  11 H :    0.005149    0.000031
  12 H :    0.006009   -0.000104
  13 O :    0.143280    0.953687
  14 H :   -0.173674    0.048485

----------------------------------------------------
LOEWDIN REDUCED ORBITAL CHARGES AND SPIN POPULATIONS
----------------------------------------------------
CHARGE
[...]
      dx2y2   :    -0.000000
      dxy     :    -0.000000
  9 H s       :     0.000093  s :     0.000093
      pz      :    -0.000003  p :    -0.000006
      px      :    -0.000001
      py      :    -0.000002
      dz2     :     0.000001  d :     0.000002
      dxz     :     0.000001
      dyz     :     0.000000
      dx2y2   :     0.000001
      dxy     :    -0.000000
 10 H s       :     0.000078  s :     0.000078
      pz      :     0.000003  p :     0.000003
      px      :     0.000000
      py      :    -0.000001
      dz2     :    -0.000000  d :    -0.000000
      dxz     :     0.000000
      dyz     :    -0.000000
      dx2y2   :     0.000000
      dxy     :    -0.000000
 11 H s       :    -0.000042  s :    -0.000042
      pz      :    -0.000001  p :     0.000008
      px      :     0.000003
      py      :     0.000006
      dz2     :     0.000000  d :     0.000000
      dxz     :    -0.000001
      dyz     :    -0.000001
      dx2y2   :     0.000001
      dxy     :     0.000000
 12 H s       :     0.000070  s :     0.000070
      pz      :    -0.000101  p :    -0.000119
      px      :    -0.000008
      py      :    -0.000010
      dz2     :     0.000001  d :    -0.000025
      dxz     :    -0.000008
      dyz     :    -0.000015
      dx2y2   :    -0.000001
      dxy     :    -0.000002
 13 O s       :     0.010122  s :     0.010122
      pz      :     0.007848  p :     0.935969
      px      :     0.824008
      py      :     0.104113
      dz2     :    -0.000163  d :     0.002003
      dxz     :     0.000727
      dyz     :    -0.000171
      dx2y2   :     0.000803
      dxy     :     0.000807
      f0      :    -0.000161  f :     0.000403
      f+1     :     0.000265
      f-1     :     0.000053
      f+2     :     0.000034
      f-2     :     0.000033
      f+3     :     0.000089
      f-3     :     0.000090
 14 H s       :    -0.018734  s :    -0.018734
      pz      :     0.004247  p :     0.050903
      px      :     0.044091
      py      :     0.002565
      dz2     :     0.001312  d :     0.021385
      dxz     :     0.016518
      dyz     :     0.002680
      dx2y2   :     0.000405
      dxy     :     0.000471


                      *****************************
                      * MAYER POPULATION ANALYSIS *
                      *****************************

  NA   - Mulliken gross atomic population
  ZA   - Total nuclear charge
  QA   - Mulliken gross atomic charge
  VA   - Mayer's total valence
  BVA  - Mayer's bonded valence
  FA   - Mayer's free valence

  ATOM       NA         ZA         QA         VA         BVA        FA
  0 C      6.1084     6.0000    -0.1084     3.9394     3.7565     0.1829
  1 C      6.1812     6.0000    -0.1812     3.9865     3.7997     0.1868
  2 C      6.1074     6.0000    -0.1074     3.9411     3.7586     0.1826
  3 C      6.1811     6.0000    -0.1811     3.9582     3.7332     0.2249
  4 C      6.1885     6.0000    -0.1885     3.9605     3.7354     0.2251
  5 H      0.9162     1.0000     0.0838     1.0102     0.9741     0.0361
  6 H      0.9077     1.0000     0.0923     1.0115     0.9761     0.0354
  7 H      0.9103     1.0000     0.0897     1.0157     0.9807     0.0350
  8 H      0.9091     1.0000     0.0909     1.0319     0.9966     0.0353
  9 H      0.9102     1.0000     0.0898     1.0103     0.9747     0.0355
 10 H      0.9165     1.0000     0.0835     1.0101     0.9739     0.0362
 11 H      0.8817     1.0000     0.1183     1.0130     0.9795     0.0335
 12 H      0.8779     1.0000     0.1221     1.0111     0.9776     0.0334
 13 O      8.2536     8.0000    -0.2536     2.1036     0.9711     1.1325
 14 H      0.7503     1.0000     0.2497     1.0336     0.9985     0.0351

  Mayer bond orders larger than 0.100000
B(  0-C ,  1-C ) :   0.9083 B(  0-C ,  4-C ) :   0.9448 B(  0-C ,  5-H ) :   0.9562 
B(  0-C ,  6-H ) :   0.9669 B(  1-C ,  2-C ) :   0.9120 B(  1-C ,  7-H ) :   0.9728 
B(  1-C ,  8-H ) :   0.9780 B(  2-C ,  3-C ) :   0.9443 B(  2-C ,  9-H ) :   0.9684 
B(  2-C , 10-H ) :   0.9558 B(  3-C ,  4-C ) :   1.7811 B(  3-C , 11-H ) :   0.9561 
B(  4-C , 12-H ) :   0.9557 B( 13-O , 14-H ) :   0.9412 


-------
TIMINGS
-------

Total time                :   21.867 sec
Integral trafo            :    0.506 sec (  2.3%)
FC preparation            :    0.274 sec (  1.3%)
I/O of integrals          :    0.166 sec (  0.8%)
K(i,j) operators          :    0.418 sec (  1.9%)
T(i,j) pair energies      :    0.095 sec (  0.4%)
V**(-1/2)                 :    0.116 sec (  0.5%)
Gamma(ia|P)               :    0.434 sec (  2.0%)
Gamma-Trafo               :    0.091 sec (  0.4%)
D(virtual)                :    0.087 sec (  0.4%)
D(internal)               :    0.447 sec (  2.0%)
W(virtual)                :    0.087 sec (  0.4%)
W(internal)               :    0.390 sec (  1.8%)
L(virtual)                :    0.244 sec (  1.1%)
L(internal)               :    0.014 sec (  0.1%)
XC kernel                 :    0.022 sec (  0.1%)
G(D)                      :    1.351 sec (  6.2%)
G(Z)                      :    1.355 sec (  6.2%)
Z-vector solution         :    4.592 sec ( 21.0%)
3-index derivative        :    0.487 sec (  2.2%)
2-index derivative        :    0.041 sec (  0.2%)
Fock matrix gradient      :    9.656 sec ( 44.2%)


---------------------------------------
MP2 TOTAL ENERGY:     -270.658171394 Eh
---------------------------------------

The final MP2 gradient
  0:   0.00006998   0.00001554   0.00003337
  1:  -0.00008689   0.00000444  -0.00000331
  2:   0.00007552   0.00008327   0.00002858
  3:  -0.00005673  -0.00012999  -0.00010160
  4:   0.00002278  -0.00003568   0.00003756
  5:   0.00003183  -0.00003729   0.00001905
  6:   0.00000435   0.00003305   0.00001221
  7:   0.00001858   0.00003060   0.00003309
  8:   0.00001046   0.00001540   0.00001652
  9:  -0.00003925   0.00001174  -0.00003494
 10:  -0.00006532  -0.00002987   0.00000927
 11:  -0.00002814  -0.00000896  -0.00002130
 12:  -0.00000145  -0.00002593  -0.00002172
 13:   0.00004391  -0.00013145   0.00002024
 14:   0.00001801   0.00023151  -0.00000133

-----------------------------------
NORM OF THE MP2 GRADIENT:  0.000390
-----------------------------------

Maximum memory used throughout the entire MP2-calculation: 68.5 MB


-------------------------------------------------------------------------------
                          DFT DISPERSION CORRECTION                            
                                                                               
                                DFTD4 V3.4.0                                   
-------------------------------------------------------------------------------
The REV-DSD-PBEP86-2021 functional is recognized
A user input s6-coefficient scaling factor has been recognized
A user input a1-coefficient scaling factor has been recognized
A user input s8-coefficient scaling factor has been recognized
A user input a2-coefficient scaling factor has been recognized
A user input s9-coefficient scaling factor has been recognized
Active option DFTDOPT                   ...         5   

-------------------------   ----------------
Dispersion correction           -0.007380214
-------------------------   ----------------


-------------------------   --------------------
FINAL SINGLE POINT ENERGY      -270.665551608314
-------------------------   --------------------

                                *** OPTIMIZATION RUN DONE ***



           ************************************************************
           *        Program running with 8 parallel MPI-processes     *
           *              working on a common directory               *
           ************************************************************

------------------------------------------------------------------------------
                              ORCA PROPERTY CALCULATIONS
------------------------------------------------------------------------------

GBWName                                 ... opt.gbw
Number of atoms                         ...     15
Number of basis functions               ...    312
Max core memory                         ...  10000 MB

Electric properties:
Dipole moment                           ... YES
Quadrupole moment                       ...  NO
Static polarizability (Dipole/Dipole)   ...  NO
Static polarizability (Dipole/Quad.)    ...  NO
Static polarizability (Quad./Quad.)     ...  NO
Static polarizability (Velocity)        ...  NO
Static hyperpolarizability              ...  NO

Atomic electric properties:
Dipole moment                           ...  NO
Quadrupole moment                       ...  NO
Static polarizability                   ...  NO

Choice of electric origin               ... Center of mass
Position of electric origin             ...     1.337888     1.643028     1.342761

General magnetic properties:
Magnetizability                         ...  NO

EPR properties:
g-Tensor (aka g-matrix)                 ...  NO
Zero-Field splitting spin-orbit         ...  NO
Zero-field splitting spin-spin          ...  NO
Hyperfine couplings                     ...  NO (   0 nuclei)
Quadrupole couplings                    ...  NO (   0 nuclei)
Contact density                         ...  NO (   0 nuclei)

NMR properties:
Chemical shifts                         ...  NO (   0 nuclei)
Spin-rotation constants                 ...  NO (   0 nuclei)
Spin-spin couplings                     ...  NO (   0 nuclei,    0 pairs)

Choice of magnetic origin               ... GIAO
Position of magnetic origin             ...     0.000000     0.000000     0.000000

Properties with geometric perturbations:
SCF Hessian                             ...  NO
IR spectrum                             ...  NO
VCD spectrum                            ...  NO
X-ray spectroscopy properties:
SCF XES/XAS/RIXS spectra                ...  NO

SCF SOC stabilization energy            ...  NO
Diagonal Born-Oppenheimer correction    ...  NO

-------------
DIPOLE MOMENT
-------------

Method             : SCF
Type of density    : Electron Density
Multiplicity       :   2
Irrep              :   0
Energy             :  -270.1137878670048735 Eh
Basis              : AO
                                X                 Y                 Z
Electronic contribution:      0.149237369      -2.197432361       2.243095216
Nuclear contribution   :     -0.212019375       2.237502581      -3.170893001
                        -----------------------------------------
Total Dipole Moment    :     -0.062782006       0.040070219      -0.927797785
                        -----------------------------------------
Magnitude (a.u.)       :      0.930782430
Magnitude (Debye)      :      2.365860919



--------------------
Rotational spectrum 
--------------------
 
Rotational constants in cm-1:             0.134474             0.077878             0.076787 
Rotational constants in MHz :          4031.427288          2334.713604          2302.009876 

Dipole components along the rotational axes: 
x,y,z [a.u.] :    -0.885676     0.057161     0.280475 
x,y,z [Debye]:    -2.251210     0.145292     0.712911 

 

-------------
DIPOLE MOMENT
-------------

Method             : MP2
Type of density    : Electron Density
Multiplicity       :   2
Level              : Unrelaxed density
Irrep              :   0
Energy             :     0.0000000000000000 Eh
Basis              : AO
                                X                 Y                 Z
Electronic contribution:      0.150068826      -2.195167462       2.251811266
Nuclear contribution   :     -0.212019375       2.237502581      -3.170893001
                        -----------------------------------------
Total Dipole Moment    :     -0.061950550       0.042335119      -0.919081735
                        -----------------------------------------
Magnitude (a.u.)       :      0.922139560
Magnitude (Debye)      :      2.343892490



--------------------
Rotational spectrum 
--------------------
 
Rotational constants in cm-1:             0.134474             0.077878             0.076787 
Rotational constants in MHz :          4031.427288          2334.713604          2302.009876 

Dipole components along the rotational axes: 
x,y,z [a.u.] :    -0.878252     0.055688     0.275526 
x,y,z [Debye]:    -2.232338     0.141549     0.700331 

 

-------------
DIPOLE MOMENT
-------------

Method             : MP2
Type of density    : Electron Density
Multiplicity       :   2
Level              : Relaxed density
Irrep              :   0
Energy             :     0.0000000000000000 Eh
Basis              : AO
                                X                 Y                 Z
Electronic contribution:      0.152429548      -2.199099478       2.280011253
Nuclear contribution   :     -0.212019375       2.237502581      -3.170893001
                        -----------------------------------------
Total Dipole Moment    :     -0.059589828       0.038403102      -0.890881748
                        -----------------------------------------
Magnitude (a.u.)       :      0.893697955
Magnitude (Debye)      :      2.271599675



--------------------
Rotational spectrum 
--------------------
 
Rotational constants in cm-1:             0.134474             0.077878             0.076787 
Rotational constants in MHz :          4031.427288          2334.713604          2302.009876 

Dipole components along the rotational axes: 
x,y,z [a.u.] :    -0.850350     0.054237     0.269555 
x,y,z [Debye]:    -2.161417     0.137859     0.685155 

 

Dipole moment calculation done in   0.1 sec 

Maximum memory used throughout the entire PROP-calculation: 17.0 MB

--------------------------------
SUGGESTED CITATIONS FOR THIS RUN
--------------------------------

Below you find a list of papers that are relevant to this ORCA run
We neither can nor want to force you to cite these papers, but we appreciate if you do
You receive ORCA, which is the product of decades of hard work by many enthusiastic individuals, for free
The only thing we kindly ask in return is that you cite our papers,
We deeply appreciate it, if you show your appreciation for ORCA by not just citing the generic ORCA reference.

Please note that relegating all ORCA citations to the supporting information does *not* help us.
SI sections are not indexed - citations you put there will not count into any citation statistics
But we need these citations in order to attract the funding resources that allow us to do what we are doing

Therefore, if you are a happy ORCA user, please consider citing a few of the papers listed below in the main body of your paper

In addition to the list printed below, the program has created the file opt.bibtex that contains the list in bibtex format
You can import this file easily into all common literature databanks and citation aid programs


List of essential papers. We consider these as the minimum necessary citations

  1. Neese, F.
     Software update: the ORCA program system, version 6.0
     WIRES Comput. Molec. Sci. 2025 15(1), e70019
     doi.org/10.1002/wcms.7019

List of papers to cite with high priority. The work reported in these papers was absolutely
necessary for this run to complete.
Our perspective: the developers of density functionals and basis sets usually get cited in chemistry papers
Good! But without the algorithms to do something with them, the functionals or basis sets would not do anything.
Hence, in our opinion, the algorithm design and method developments papers are equally worthy of getting cited

  1. Neese, F.
     An improvement of the resolution of the identity approximation for the formation of the Coulomb matrix
     J. Comp. Chem. 2003 24(14), 1740-1747
     doi.org/10.1002/jcc.10318
  2. Neese, F.; Schwabe, T.; Grimme, S.
     Analytic derivatives for perturbatively corrected 'double hybrid' density functionals: Theory, implementation, and applications
     J. Chem. Phys. 2007 126(12), Art. No. 124115
     doi.org/10.1063/1.2712433
  3. Neese, F.; Wennmohs, F.; Hansen, A.; Becker, U.
     Efficient, approximate and parallel Hartree-Fock and hybrid DFT calculations. A 'chain-of-spheres' algorithm for the Hartree-Fock exchange
     Chem. Phys. 2009 356(1-3), 98-109
     doi.org/10.1016/j.chemphys.2008.10.036
  4. Kossmann, S.; Neese, F.
     Efficient Structure Optimization with Second-Order Many-Body Perturbation Theory: The RIJCOSX-MP2 Method
     J. Theo. Comp. Chem. 2010 6 , 2325-2338
     doi.org/10.1021/ct100199k
  5. Caldeweyher, E.; Bannwarth, C.; Grimme, S.
     Extension of the D3 dispersion coefficient model
     J. Chem. Phys. 2017 147 , 034112
     doi.org/10.1063/1.4993215
  6. Caldeweyher, E.; Ehlert, S.; Hansen, A.; Neugebauer, H.; Spicher, S.; Bannwarth, C.; Grimme, S.
     A generally applicable atomic-charge dependent London dispersion correction
     J. Chem. Phys. 2019 150 , 154122
     doi.org/10.1063/1.5090222
  7. Caldeweyher, E.; Mewes, J.; Ehlert, S.; Grimme, S.
     Extension and evaluation of the D4 London-dispersion model for periodic systems
     Phys. Chem. Chem. Phys. 2020 22(16), 8499-8512
     doi.org/10.1039/D0CP00502A
  8. Helmich-Paris, B.; de Souza, B.; Neese, F.; Izsák, R.
     An improved chain of spheres for exchange algorithm
     J. Chem. Phys. 2021 155(10), 104109
     doi.org/10.1063/5.0058766
  9. Neese, F.
     The SHARK Integral Generation and Digestion System
     J. Comp. Chem. 2022 44(3), 381
     doi.org/10.1002/jcc.26942
 10. Wittmann, L.; Gordiy, I.; Friede, M.; Helmich-Paris, B.; Grimme, S.; Hansen, A.; Bursch, M.
     Extension of the D3 and D4 London Dispersion Corrections to the full Actinides Series
     Phys. Chem. Chem. Phys. 2024 26(32), 21379-21394
     doi.org/10.1039/D4CP01514B

List of suggested additional citations. These are papers that are important in the 'surrounding' of 
of this run, or papers that preceded the highly important papers. If you like your results we are grateful for a citation.

  1. Izsak, R.; Neese, F.
     An overlap fitted chain of spheres exchange method
     J. Chem. Phys. 2011 135 , 144105
     doi.org/10.1063/1.3646921
  2. Izsak, R.; Hansen, A.; Neese, F.
     The resolution of identity and chain of spheres approximations for the LPNO-CCSD singles Fock term
     Molec. Phys. 2012 110 , 2413-2417
     doi.org/10.1080/00268976.2012.687466
  3. Neese, F.
     The ORCA program system
     WIRES Comput. Molec. Sci. 2012 2(1), 73-78
     doi.org/10.1002/wcms.81
  4. Izsak, R.; Neese, F.; Klopper, W.
     Robust fitting techniques in the chain of spheres approximation to the Fock exchange: The role of the complementary space
     J. Chem. Phys. 2013 139 , 
     doi.org/10.1063/1.4819264
  5. Neese, F.
     Software update: the ORCA program system, version 4.0
     WIRES Comput. Molec. Sci. 2018 8(1), 1-6
     doi.org/10.1002/wcms.1327
  6. Neese, F.; Wennmohs, F.; Becker, U.; Riplinger, C.
     The ORCA quantum chemistry program package
     J. Chem. Phys. 2020 152(22), 224108
     doi.org/10.1063/5.0004608
  7. Neese, F.
     Software update: The ORCA program system—Version 5.0
     WIRES Comput. Molec. Sci. 2022 12(1), e1606
     doi.org/10.1002/wcms.1606

List of optional additional citations

  1. Neese, F.
     Approximate second-order SCF convergence for spin unrestricted wavefunctions
     Chem. Phys. Lett. 2000 325(1-3), 93-98
     doi.org/10.1016/s0009-2614(00)00662-x

Timings for individual modules:

Sum of individual times          ...      885.105 sec (=  14.752 min)
Startup calculation              ...       50.936 sec (=   0.849 min)   5.8 %
SCF iterations                   ...      365.586 sec (=   6.093 min)  41.3 %
Property calculations            ...        1.849 sec (=   0.031 min)   0.2 %
MP2 module                       ...      466.482 sec (=   7.775 min)  52.7 %
Geometry relaxation              ...        0.252 sec (=   0.004 min)   0.0 %
                             ****ORCA TERMINATED NORMALLY****
TOTAL RUN TIME: 0 days 0 hours 15 minutes 20 seconds 743 msec
