
                                 *****************
                                 * O   R   C   A *
                                 *****************

                                            #,                                       
                                            ###                                      
                                            ####                                     
                                            #####                                    
                                            ######                                   
                                           ########,                                 
                                     ,,################,,,,,                         
                               ,,#################################,,                 
                          ,,##########################################,,             
                       ,#########################################, ''#####,          
                    ,#############################################,,   '####,        
                  ,##################################################,,,,####,       
                ,###########''''           ''''###############################       
              ,#####''   ,,,,##########,,,,          '''####'''          '####       
            ,##' ,,,,###########################,,,                        '##       
           ' ,,###''''                  '''############,,,                           
         ,,##''                                '''############,,,,        ,,,,,,###''
      ,#''                                            '''#######################'''  
     '                                                          ''''####''''         
             ,#######,   #######,   ,#######,      ##                                
            ,#'     '#,  ##    ##  ,#'     '#,    #''#        ,####,    ,#,          
            ##       ##  ##   ,#'  ##            #'  '#       #'       ,# #          
            ##       ##  #######   ##           ,######,      #####,      #          
            '#,     ,#'  ##    ##  '#,     ,#' ,#      #,     #,   #      #          
             '#######'   ##     ##  '#######'  #'      '#     '####' #    #          



                #########################################################
                #                        -***-                          #
                #          Department of theory and spectroscopy        #
                #                                                       #
                #                      Frank Neese                      #
                #                                                       #
                #     Directorship, Architecture, Infrastructure        #
                #                    SHARK, DRIVERS                     #
                #        Core code/Algorithms in most modules           #
                #                                                       #
                #        Max Planck Institute fuer Kohlenforschung      #
                #                Kaiser Wilhelm Platz 1                 #
                #                 D-45470 Muelheim/Ruhr                 #
                #                      Germany                          #
                #                                                       #
                #                  All rights reserved                  #
                #                        -***-                          #
                #########################################################


                         Program Version 6.1.0  -  RELEASE   -
                                (GIT: $679e74b$)
                          ($2025-06-10 18:02:51 +0200$)


 With contributions from (in alphabetic order):
[Max-Planck-Institut fuer Kohlenforschung]                               
  Daniel Aravena         : Magnetic Suceptibility                        
  Michael Atanasov       : Ab Initio Ligand Field Theory (pilot matlab implementation)
  Alexander A. Auer      : GIAO ZORA, VPT2 properties, NMR spectrum      
  Ute Becker             : All parallelization in ORCA, NUMFREQ, NUMCALC 
  Giovanni Bistoni       : ED, misc. LED, open-shell LED, HFLD           
  Dmytro Bykov           : pre 5.0 version of the SCF Hessian            
  Marcos Casanova-Páez   : Triplet and SCS-CIS(D). UHF-(DLPNO)-IP/EA/STEOM-CCSD. UHF-CVS-IP/STEOM-CCSD   
  Vijay G. Chilkuri      : MRCI spin determinant printing, contributions to CSF-ICE 
  Pauline Colinet        : FMM embedding                                 
  Dipayan Datta          : RHF DLPNO-CCSD density                        
  Achintya Kumar Dutta   : EOM-CC, STEOM-CC                              
  Nicolas Foglia         : Exact transition moments, OPA infrastructure, MCD improvements    
  Dmitry Ganyushin       : Spin-Orbit,Spin-Spin,Magnetic field MRCI      
  Miquel Garcia-Rates    : C-PCM and meta-GGA Hessian, CCSD/C-PCM, Gaussian charge scheme 
  Tiago L. C. Gouveia    : GS-ROHF, GS-ROCIS                             
  Yang Guo               : DLPNO-NEVPT2, F12-NEVPT2, CIM, IAO-localization        
  Andreas Hansen         : Spin unrestricted coupled pair/coupled cluster methods 
  Ingolf Harden          : AUTO-CI MPn and infrastructure                
  Benjamin Helmich-Paris : MC-RPA, TRAH-(SCF,CASSCF), AVAS, COSX integrals, SCF dyn. polar., MC-PDFT, srDFT 
  Lee Huntington         : MR-EOM, pCC                                   
  Robert Izsak           : Overlap fitted RIJCOSX, COSX-SCS-MP3, EOM     
  Riya Kayal             : Wick's Theorem for AUTO-CI, AUTO-CI UHF-CCSDT 
  Emily Kempfer          : AUTO-CI RHF CISDT and CCSDT, approximate NEVPT4
  Christian Kollmar      : KDIIS, OOCD, Brueckner-CCSD(T), CCSD density, CASPT2, CASPT2-K, improved NEVPT2 
  Axel Koslowski         : Symmetry handling                             
  Simone Kossmann        : meta-GGA functionals, TD-DFT gradient, OOMP2, (MP2 Hessian; deprecated post 5.0) 
  Lucas Lang             : DCDCAS, Hyperfine gauge corrections, ICE-SOC+SSC
  Marvin Lechner         : AUTO-CI (C++ implementation), FIC-MRCC        
  Spencer Leger          : CASSCF response                               
  Dagmar Lenk            : GEPOL surface, SMD, ORCA-2-JSON               
  Dimitrios Liakos       : Extrapolation schemes; Compound Job, Property file
  Dimitrios Manganas     : Further ROCIS development; embedding schemes. LFT, Crystal Embedding 
  Dimitrios Pantazis     : SARC Basis sets                               
  Anastasios Papadopoulos: AUTO-CI, single reference methods and gradients 
  Taras Petrenko         : pre 6.0 DFT Hessian and TD-DFT gradient,  ECA, NRVS 
  Petra Pikulova         : Analytic Raman intensities                    
  Peter Pinski           : DLPNO-MP2, DLPNO-MP2 Gradient                 
  Shashank Vittal Rao    : ES-AILFT, MagRelax                            
  Christoph Reimann      : Effective Core Potentials                     
  Marius Retegan         : Local ZFS, SOC                                
  Christoph Riplinger    : Optimizer, TS searches, QM/MM, DLPNO-CCSD(T), (RO)-DLPNO pert. Triples 
  Michael Roemelt        : Original ROCIS implementation, recursive CI coupling coefficients
  Masaaki Saitow         : Open-shell DLPNO-CCSD energy and density      
  Barbara Sandhoefer     : DKH picture change effects                    
  Yorick L. A. Schmerwitz: GMF and freeze-and-release deltaSCF, NEB S-IDPP initial path                    
  Kantharuban Sivalingam : CASSCF convergence/infrastructure, NEVPT2, NEVPT3, NEVPT4(SD), FIC-MRCI and CEPA variants
  Bernardo de Souza      : ESD, SOC TD-DFT                               
  Georgi L. Stoychev     : AutoAux, RI-MP2 NMR, DLPNO-MP2 response, X2C  
  Van Anh Tran           : RI-MP2 g-tensors                              
  Willem Van den Heuvel  : Paramagnetic NMR                              
  Zikuan Wang            : NOTCH, Electric field optimization            
  Frank Wennmohs         : Technical directorship and infrastructure     
  Hang Xu                : AUTO-CI-Response properties                   
                                                                         
[FACCTs GmbH]                                                            
  Markus Bursch, Nicolas Foglia, Miquel Garcia-Rates, Ingolf Harden, Hagen Neugebauer, Anastasios Papadopoulos, 
  Christoph Riplinger, Bernardo de Souza, Georgi L. Stoychev                                                    
                                                                 
  APM, various basis sets, CI-OPT, improved COSX, DLPNO-Multilevel,           
  DOCKER, DRACO, updates on ESD, Fragmentator, GOAT, IRC, LR-CPCM, L-BFGS, MBIS, meta-GGA TD-DFT gradient, ML-optimized integration grids, 
  MM, NACMEs, nearIR, NEB, NEB-TS, NL-DFT gradient (VV10), 2- and 3-layer-ONIOM, interface openCOSMO-RS, QMMM,   
  Crystal-QMMM, RESP, rigid body optimization, SF, symmetry and pop. for TD-DFT, various functionals, SOLVATOR                                   
                                                                         
[Other institutions]                                                     
  V. Asgeirsson          : NEB                                           
  Christoph Bannwarth    : sTDA-DFT, sTD-DFT, PBEh-3c, B97-3c, D3        
  Giovanni Bistoni       : ETS/NOCV, ADLD/ADEX, COVALED                  
  Martin Brehm           : Molecular dynamics                            
  Ronald Cardenas        : ETS/NOCV                                      
  Martina Colucci        : COVALED                                       
  Sebastian Ehlert       : rSCAN, r2SCAN, r2SCAN-3c, D4, dhf basis sets  
  Marvin Friede          : D4 for Fr, Ra, Ac-Lr                          
  Lars Goerigk           : TD-DFT with DH, B97 family of functionals     
  Stefan Grimme          : VdW corrections, initial TS optimization, DFT functionals, gCP, sTDA/sTD-DF 
  Waldemar Hujo          : DFT-NL                                        
  H. Jonsson             : NEB                                           
  Holger Kruse           : gCP                                           
  Marcel Mueller         : wB97X-3c, vDZP basis set                      
  Hagen Neugebauer       : wr2SCAN, Native XTB                           
  Gianluca Regni         : ADLD/ADEX                                     
  Tobias Risthaus        : pre 6.0 range-separated hybrid DFT and stability analysis
  Lukas Wittmann         : regularized MP2, r2SCAN double-hybrids, wr2SCAN        
                                                                         
We gratefully acknowledge several colleagues who have allowed us to      
interface, adapt or use parts of their codes:                            
  Ed Valeev, F. Pavosevic, A. Kumar             : LibInt (2-el integral package), F12 methods 
  Garnet Chan, S. Sharma, J. Yang, R. Olivares  : DMRG                   
  Ulf Ekstrom                                   : XCFun DFT Library      
  Mihaly Kallay                                 : mrcc  (arbitrary order and MRCC methods)
  Frank Weinhold                                : gennbo (NPA and NBO analysis)           
  Simon Mueller                                 : openCOSMO-RS                            
  Christopher J. Cramer and Donald G. Truhlar   : smd solvation model                     
  S Lehtola, MJT Oliveira, MAL Marques          : LibXC Library                           
  Liviu Ungur et al                             : ANISO software                          


 Your calculation uses the libint2 library for the computation of 2-el integrals
 For citations please refer to: http://libint.valeyev.net

 Your ORCA version has been built with support for libXC version: 7.0.0
 For citations please refer to: https://libxc.gitlab.io

 This ORCA versions uses:
   CBLAS   interface :  Fast vector & matrix operations
   LAPACKE interface :  Fast linear algebra routines
   SCALAPACK package :  Parallel linear algebra routines
   Shared memory     :  Shared parallel matrices
   BLAS/LAPACK       :  OpenBLAS 0.3.29  USE64BITINT DYNAMIC_ARCH NO_AFFINITY SkylakeX SINGLE_THREADED
        Core in use  :  SkylakeX
   Copyright (c) 2011-2014, The OpenBLAS Project


  ***********************************
  * Starting time: Mon Aug  4 14:56:30 2025
  * Host name:     csed-0009
  * Process ID:    704741
  * Working dir.:  /gpfs/fs1/home/copan/proj/cyclopentene-oh-addition-project/calc/cyC5e1+OH/run-wb97x-3c
  ***********************************



***************************************
The coordinates will be read from file: guess.xyz
***************************************


Your calculation utilizes the atom-pairwise dispersion correction
based on EEQ partial charges (D4)


================================================================================

cite the ECPs for C  [vDZP-ECP], O  [vDZP-ECP] as follows:
   B-Ne (ecp-2-mwb), Al-Ar (ecp-10-mwb), Ga-Kr (ecp-28-mwb), Y-Cd (ecp-28-mwb), In-Xe (ecp-46-mwb):
     A. Bergner, M. Dolg, W. Küchle, H. Stoll, and H. Preuß, Mol. Phys. 80, 1431 (1993)., T. Leininger, A. Berning, A. Nicklass, H. Stoll, H.-J. Werner, and H.-J.Flad, Chem. Phys. 217, 19 (1997).
   Na-Mg, K-Ca, Rb-Sr, Cs-Ba (CRENBL):
     L. Fernandez Pacios and P. A. Christiansen, J. Chem. Phys. 82, 2664 (1985)., M. M. Hurley, L. F. Pacios, P. A. Christiansen, R. B. Ross, and W. C. Ermler, J. Chem. Phys. 84, 6840 (1986)., L. A. LaJohn, P. A. Christiansen, R. B. Ross, T. Atashroo, and W. C. Ermler, J. Chem. Phys. 87, 2812 (1987)., R. B. Ross, J. M. Powers, T. Atashroo, W. C. Ermler, L. A. LaJohn, and P. A. Christiansen, J. Chem. Phys. 93, 6654 (1990). 
   Sc-Zn (ecp-10-mdf):
     M. Dolg, U. Wedig, H. Stoll, and H. Preuss, J. Chem. Phys. 86, 866 (1986). 
   Y-Cd (ecp-28-mwb), Hf-Hg (ecp-60-mwb):
     D. Andrae, U. Häußermann, M. Dolg, H. Stoll, and H. Preuß, Theor. Chim. Acta 77, 123 (1990). 
   La (ecp-46-mwb):
     M. Dolg, H. Stoll, and H. Preuss, J. Chem. Phys. 90, 1730 (1989)., M. Dolg, H. Stoll, and H. Preuss, Theor. Chim. Acta 85, 441 (1993).
   Ce-Lu (SBKJC-ecp):
     T. R. Cundari and W. J. Stevens, J. Chem. Phys. 98, 5555 (1993).
   Tl-Rn (ecp-78-mwb):
     W. Küchle, M. Dolg, H. Stoll, and H. Preuss, Mol. Phys. 74, 1245 (1991).

ECP parameters for C  [vDZP-ECP], O  [vDZP-ECP] have been obtained from:
MM, AH, SG, J. Chem. Phys. 158, 014103 (2023), 10.1063/5.0133026

----- Orbital basis set information -----
Your calculation utilizes the basis: vDZP
   Marcel Mueller, Andreas Hansen, Stefan Grimme 
   J. Chem. Phys. 158, 014103 (2023). DOI: 10.1063/5.0133026

----- AuxJ basis set information -----
Your calculation utilizes the auxiliary basis: def2/J
   H-Rn: F. Weigend, Phys. Chem. Chem. Phys. 8, 1057 (2006).
   Fr-Lr: K. Eichkorn, F. Weigend, O. Treutler, R. Ahlrichs; Theor. Chem. Acc. 97, 119 (1997).

================================================================================
                                        WARNINGS
                       Please study these warnings very carefully!
================================================================================

WARNING: Frozen-Core approximation turned on, but there are no core electrons.
  ===> : Turning off frozen-core approximation


WARNING: your system is open-shell and RHF/RKS was chosen
  ===> : WILL SWITCH to UHF/UKS


WARNING: Geometry Optimization
  ===> : Switching off AutoStart
         For restart on a previous wavefunction, please use MOREAD

================================================================================
                                       INPUT FILE
================================================================================
NAME = opt.inp
|  1> ! wB97X-3c
|  2> ! OPT
|  3> * xyzfile 0 2 guess.xyz
|  4> 
|  5>                          ****END OF INPUT****
================================================================================

                       *****************************
                       * Geometry Optimization Run *
                       *****************************

Geometry optimization settings:
Update method            Update   .... BFGS
Choice of coordinates    CoordSys .... (2022) Redundant Internals
Initial Hessian          InHess   .... Almloef's Model
Max. no of cycles        MaxIter  .... 50

Convergence Tolerances:
Energy Change            TolE     ....  5.0000e-06 Eh
Max. Gradient            TolMAXG  ....  3.0000e-04 Eh/bohr
RMS Gradient             TolRMSG  ....  1.0000e-04 Eh/bohr
Max. Displacement        TolMAXD  ....  4.0000e-03 bohr
RMS Displacement         TolRMSD  ....  2.0000e-03 bohr
Strict Convergence                .... False

------------------------------------------------------------------------------
                        ORCA OPTIMIZATION COORDINATE SETUP
------------------------------------------------------------------------------

The optimization will be done in redundant internal coordinates (2022)
Making redundant internal coordinates   ...  (2022 redundants) done
Evaluating the initial hessian          ...  (Almloef) done
Evaluating the coordinates              ...  done
Calculating the B-matrix                .... done
Calculating the G-matrix                .... done
The number of degrees of freedom        ....  312

    -----------------------------------------------------------------
                    Redundant Internal Coordinates


    -----------------------------------------------------------------
         Definition                    Initial Value    Approx d2E/dq
    -----------------------------------------------------------------
      1. B(C   1,C   0)                  1.5284         0.375810   
      2. B(C   2,C   1)                  1.5284         0.375809   
      3. B(C   3,C   2)                  1.4923         0.429040   
      4. B(C   4,C   0)                  1.4923         0.429038   
      5. B(C   4,C   3)                  1.3367         0.759832   
      6. B(H   5,C   0)                  1.0948         0.353842   
      7. B(H   6,C   0)                  1.0939         0.355042   
      8. B(H   7,C   1)                  1.0949         0.353684   
      9. B(H   8,C   1)                  1.0979         0.349736   
     10. B(H   9,C   2)                  1.0939         0.355042   
     11. B(H  10,C   2)                  1.0948         0.353841   
     12. B(H  11,C   3)                  1.0814         0.371626   
     13. B(H  12,C   4)                  1.0814         0.371625   
     14. B(O  13,H   8)                  3.0224         0.010000   
     15. B(H  14,C   4)                  2.4611         0.010000   
     16. B(H  14,O  13)                  0.9798         0.483566   
     17. B(H  14,C   2)                  2.9692         0.010000   
     18. B(H  14,C   0)                  2.9543         0.010000   
     19. B(H  14,H   9)                  2.9515         0.010000   
     20. B(H  14,H   6)                  2.9268         0.010000   
     21. B(H  14,H  11)                  2.9035         0.010000   
     22. B(H  14,C   1)                  2.9582         0.010000   
     23. B(H  14,H  12)                  2.8875         0.010000   
     24. B(H  14,H   8)                  2.5784         0.010000   
     25. B(H  14,C   3)                  2.4709         0.010000   
     26. A(C   1,C   0,H  14)           75.1633         0.139009   
     27. A(H   5,C   0,H   6)          108.9661         0.289397   
     28. A(H   6,C   0,H  14)           77.8732         0.131699   
     29. A(C   4,C   0,H  14)           56.2594         0.140531   
     30. A(C   1,C   0,C   4)          102.8615         0.372466   
     31. A(C   4,C   0,H   5)          110.3230         0.330847   
     32. A(C   4,C   0,H   6)          111.8767         0.331032   
     33. A(C   1,C   0,H   6)          111.1383         0.323883   
     34. A(H   5,C   0,H  14)          166.5379         0.131667   
     35. A(C   1,C   0,H   5)          111.6025         0.323704   
     36. A(C   0,C   1,H   7)          112.0999         0.323680   
     37. A(H   7,C   1,H   8)          107.0516         0.288696   
     38. A(C   2,C   1,H   8)          109.6677         0.323084   
     39. A(C   0,C   1,C   2)          106.2559         0.364093   
     40. A(H   7,C   1,H  14)          166.4261         0.131521   
     41. A(C   2,C   1,H   7)          112.0998         0.323680   
     42. A(H   8,C   1,H  14)           59.3796         0.131413   
     43. A(C   2,C   1,H  14)           75.4541         0.138844   
     44. A(C   0,C   1,H   8)          109.6678         0.323084   
     45. A(C   0,C   1,H  14)           74.8747         0.138844   
     46. A(C   1,C   2,C   3)          102.8615         0.372466   
     47. A(H   9,C   2,H  14)           78.4458         0.131173   
     48. A(H   9,C   2,H  10)          108.9663         0.289397   
     49. A(C   3,C   2,H  10)          110.3229         0.330847   
     50. A(C   3,C   2,H  14)           56.1401         0.139896   
     51. A(C   1,C   2,H  10)          111.6026         0.323703   
     52. A(C   3,C   2,H   9)          111.8764         0.331032   
     53. A(C   1,C   2,H  14)           74.6617         0.138392   
     54. A(C   1,C   2,H   9)          111.1385         0.323883   
     55. A(H  10,C   2,H  14)          166.4563         0.131140   
     56. A(H  11,C   3,H  14)          102.4850         0.153482   
     57. A(C   2,C   3,H  14)           93.7591         0.166020   
     58. A(C   4,C   3,H  14)           73.8706         0.176656   
     59. A(C   4,C   3,H  11)          124.6597         0.367319   
     60. A(C   2,C   3,H  11)          123.5101         0.333546   
     61. A(C   2,C   3,C   4)          111.8041         0.421433   
     62. A(H  12,C   4,H  14)          102.0457         0.154010   
     63. A(C   0,C   4,C   3)          111.8041         0.421432   
     64. A(C   0,C   4,H  12)          123.5103         0.333546   
     65. A(C   3,C   4,H  12)          124.6595         0.367319   
     66. A(C   0,C   4,H  14)           93.4609         0.166650   
     67. A(C   3,C   4,H  14)           74.6790         0.177373   
     68. A(C   0,H   6,H  14)           80.6951         0.113027   
     69. A(O  13,H   8,H  14)           17.9991         0.095226   
     70. A(C   1,H   8,O  13)          116.1138         0.127762   
     71. A(C   1,H   8,H  14)           99.1233         0.120993   
     72. A(C   2,H   9,H  14)           80.2638         0.112539   
     73. A(C   3,H  11,H  14)           56.1906         0.113752   
     74. A(C   4,H  12,H  14)           56.4682         0.114084   
     75. A(H   8,O  13,H  14)           54.4083         0.130226   
     76. A(H   6,H  14,H   9)           86.1143         0.091820   
     77. A(H   9,H  14,H  11)           53.2721         0.091875   
     78. A(H   9,H  14,H  12)           90.4854         0.091914   
     79. A(C   3,H  14,H   9)           45.7555         0.096491   
     80. A(C   4,H  14,H   9)           70.8584         0.096552   
     81. A(H   9,H  14,O  13)          134.3978         0.113950   
     82. A(C   4,H  14,O  13)          146.9971         0.157198   
     83. A(H   8,H  14,H   9)           49.1367         0.092768   
     84. A(H   6,H  14,H  11)           90.6632         0.091935   
     85. A(H   6,H  14,H  12)           53.6775         0.091974   
     86. A(H   6,H  14,H   8)           49.4463         0.092846   
     87. A(C   3,H  14,H   6)           71.1757         0.096646   
     88. A(C   0,H  14,C   2)           48.7639         0.097979   
     89. A(C   4,H  14,H   6)           46.1334         0.096708   
     90. A(C   2,H  14,H   9)           21.2905         0.093950   
     91. A(C   2,H  14,H   6)           68.4933         0.094052   
     92. A(H   6,H  14,O  13)          106.8382         0.114467   
     93. A(C   2,H  14,H  11)           45.5801         0.094152   
     94. A(C   2,H  14,H  12)           70.5893         0.094221   
     95. A(H  11,H  14,H  12)           52.6197         0.092033   
     96. A(C   2,H  14,O  13)          149.2037         0.133700   
     97. A(H   8,H  14,H  11)           90.0577         0.092921   
     98. A(C   3,H  14,H  11)           21.3244         0.096796   
     99. A(C   4,H  14,H  11)           46.2280         0.096859   
    100. A(H  11,H  14,O  13)          160.5869         0.114966   
    101. A(C   1,H  14,H   6)           43.4118         0.094099   
    102. A(C   1,H  14,H  11)           70.9463         0.094199   
    103. A(C   1,H  14,H  12)           71.1656         0.094268   
    104. A(C   1,H  14,H   8)           21.4971         0.095812   
    105. A(H   8,H  14,H  12)           90.4151         0.092974   
    106. A(C   1,H  14,C   3)           50.6048         0.102543   
    107. A(C   1,H  14,C   4)           50.6635         0.102654   
    108. A(C   3,H  14,H  12)           46.3892         0.096900   
    109. A(C   1,H  14,O  13)          127.7719         0.134109   
    110. A(C   1,H  14,H   9)           43.2253         0.093995   
    111. A(C   0,H  14,C   1)           29.9620         0.098061   
    112. A(C   4,H  14,H  12)           21.4861         0.096965   
    113. A(H  12,H  14,O  13)          132.7490         0.115314   
    114. A(C   0,H  14,H   9)           68.3688         0.094012   
    115. A(C   0,H  14,H   6)           21.4317         0.094116   
    116. A(C   0,H  14,H  11)           70.5838         0.094216   
    117. A(C   2,H  14,C   4)           50.0869         0.102530   
    118. A(C   2,H  14,C   3)           30.1008         0.102420   
    119. A(C   2,H  14,H   8)           45.1781         0.095751   
    120. A(C   3,H  14,H   8)           70.9690         0.099216   
    121. A(C   0,H  14,H  12)           45.8348         0.094286   
    122. A(C   0,H  14,H   8)           45.3589         0.095835   
    123. A(C   4,H  14,H   8)           71.1211         0.099299   
    124. A(C   0,H  14,C   3)           50.2407         0.102588   
    125. A(C   1,H  14,C   2)           29.8842         0.097949   
    126. A(C   0,H  14,C   4)           30.2797         0.102699   
    127. A(H   8,H  14,O  13)          107.5926         0.123026   
    128. A(C   0,H  14,O  13)          127.7558         0.134258   
    129. A(C   3,H  14,C   4)           31.4504         0.109475   
    130. D(H   7,C   1,C   0,C   4)   -142.8313         0.012595   
    131. D(C   2,C   1,C   0,C   4)    -20.0549         0.012595   
    132. D(H   7,C   1,C   0,H   6)     97.2976         0.012595   
    133. D(C   2,C   1,C   0,H   5)     98.2117         0.012595   
    134. D(H   7,C   1,C   0,H   5)    -24.5647         0.012595   
    135. D(C   2,C   1,C   0,H  14)    -69.5239         0.012595   
    136. D(H   7,C   1,C   0,H  14)    167.6997         0.012595   
    137. D(C   2,C   1,C   0,H   6)   -139.9260         0.012595   
    138. D(H   9,C   2,C   1,H   7)    -97.2978         0.012595   
    139. D(H   9,C   2,C   1,C   0)    139.9257         0.012595   
    140. D(C   3,C   2,C   1,H   7)    142.8314         0.012595   
    141. D(H   9,C   2,C   1,H  14)     70.8085         0.012595   
    142. D(C   3,C   2,C   1,H  14)    -49.0624         0.012595   
    143. D(H   9,C   2,C   1,H   8)     21.4674         0.012595   
    144. D(C   3,C   2,C   1,C   0)     20.0549         0.012595   
    145. D(C   3,C   2,C   1,H   8)    -98.4034         0.012595   
    146. D(C   4,C   3,C   2,H  14)    -74.1230         0.015459   
    147. D(C   4,C   3,C   2,H   9)   -132.1634         0.015459   
    148. D(H  11,C   3,C   2,C   1)    168.9774         0.015459   
    149. D(H  11,C   3,C   2,H  14)    107.6585         0.015459   
    150. D(H  11,C   3,C   2,H  10)    -71.8611         0.015459   
    151. D(C   4,C   3,C   2,C   1)    -12.8041         0.015459   
    152. D(H  11,C   3,C   2,H   9)     49.6181         0.015459   
    153. D(C   4,C   3,C   2,H  10)    106.3574         0.015459   
    154. D(C   0,C   4,C   3,H  11)    178.1942         0.048367   
    155. D(H  12,C   4,C   3,C   2)   -178.1941         0.048367   
    156. D(H  14,C   4,C   3,C   2)     87.5823         0.048367   
    157. D(C   3,C   4,C   0,C   1)     12.8040         0.015459   
    158. D(H  12,C   4,C   0,C   1)   -168.9775         0.015459   
    159. D(C   3,C   4,C   0,H   5)   -106.3575         0.015459   
    160. D(C   3,C   4,C   0,H  14)     74.8758         0.015459   
    161. D(H  12,C   4,C   0,H   6)    -49.6183         0.015459   
    162. D(H  12,C   4,C   3,H  11)      0.0001         0.048367   
    163. D(H  12,C   4,C   0,H   5)     71.8611         0.015459   
    164. D(H  12,C   4,C   3,H  14)     94.2236         0.048367   
    165. D(C   0,C   4,C   3,H  14)    -87.5822         0.048367   
    166. D(C   3,C   4,C   0,H   6)    132.1632         0.015459   
    167. D(C   0,C   4,C   3,C   2)      0.0001         0.048367   
    168. D(H  14,H   6,C   0,C   4)    -45.6955         0.128002   
    169. D(H  14,H   6,C   0,C   1)     68.6613         0.128002   
    170. D(H  14,H   6,C   0,H   5)   -167.9539         0.128002   
    171. D(O  13,H   8,C   1,C   2)     64.8316         0.133044   
    172. D(O  13,H   8,C   1,H   7)   -173.3301         0.133044   
    173. D(H  14,H   8,C   1,H   7)   -179.5932         0.133044   
    174. D(H  14,H   8,C   1,C   2)     58.5685         0.133044   
    175. D(H  14,H   8,C   1,C   0)    -57.7547         0.133044   
    176. D(O  13,H   8,C   1,C   0)    -51.4916         0.133044   
    177. D(H  14,H   9,C   2,C   3)     45.9805         0.128003   
    178. D(H  14,H   9,C   2,C   1)    -68.3762         0.128003   
    179. D(H  14,H   9,C   2,H  10)    168.2387         0.128003   
    180. D(H  14,H  11,C   3,C   4)     78.8818         0.131174   
    181. D(H  14,H  11,C   3,C   2)   -103.1292         0.131174   
    182. D(H  14,H  12,C   4,C   3)    -79.5763         0.131173   
    183. D(H  14,H  12,C   4,C   0)    102.4347         0.131173   
    184. D(H   8,O  13,C   3,C   4)     85.0969         0.010000   
    185. D(H   8,O  13,C   3,H  11)   -152.2076         0.010000   
    186. D(H  14,O  13,H   8,C   1)    -20.4010         0.010000   
    187. D(H   8,O  13,C   3,C   2)    -26.5990         0.010000   
    188. D(C   4,H  14,C   0,C   1)    116.9910         0.010000   
    189. D(H  12,H  14,C   4,C   3)    122.9884         0.010000   
    190. D(O  13,H  14,C   0,H   6)     14.0143         0.010000   
    191. D(O  13,H  14,C   0,H   5)    136.0418         0.010000   
    192. D(H   8,H  14,C   4,C   3)    -84.1820         0.010000   
    193. D(H   8,H  14,C   4,C   0)     27.4877         0.010000   
    194. D(O  13,H  14,C   0,C   4)    141.0156         0.010000   
    195. D(O  13,H  14,C   0,C   1)   -101.9934         0.010000   
    196. D(O  13,H  14,C   4,H  12)     59.3937         0.010000   
    197. D(O  13,H  14,C   4,C   3)   -177.6180         0.010000   
    198. D(O  13,H  14,C   4,C   0)    -65.9482         0.010000   
    199. D(H   9,H  14,C   3,C   2)     24.0363         0.010000   
    200. D(H   6,H  14,C   3,H  11)    155.0798         0.010000   
    201. D(H   6,H  14,C   3,C   4)     32.2388         0.010000   
    202. D(H  11,H  14,C   3,C   4)   -122.8410         0.010000   
    203. D(H  11,H  14,C   3,C   2)    125.5366         0.010000   
    204. D(H  12,H  14,C   3,H  11)     97.7334         0.010000   
    205. D(H  12,H  14,C   3,C   2)   -136.7300         0.010000   
    206. D(H   8,H  14,C   3,H  11)   -152.4394         0.010000   
    207. D(H   8,H  14,C   3,C   4)     84.7195         0.010000   
    208. D(C   4,H  14,C   3,H  11)    122.8410         0.010000   
    209. D(C   4,H  14,C   3,C   2)   -111.6223         0.010000   
    210. D(H   8,H  14,C   2,H   9)    -90.5653         0.010000   
    211. D(H   8,H  14,C   2,C   3)    142.9110         0.010000   
    212. D(H   8,H  14,C   2,C   1)     25.3953         0.010000   
    213. D(C   3,H  14,C   2,H  10)      1.9241         0.010000   
    214. D(C   3,H  14,C   2,H   9)    126.5237         0.010000   
    215. D(C   4,H  14,C   2,H  10)     41.1498         0.010000   
    216. D(C   4,H  14,C   2,H   9)    165.7494         0.010000   
    217. D(C   4,H  14,C   2,C   3)     39.2257         0.010000   
    218. D(C   4,H  14,C   2,C   1)    -78.2901         0.010000   
    219. D(H   9,H  14,O  13,H   8)    -49.4485         0.493428   
    220. D(O  13,H  14,C   2,H  10)    178.2110         0.010000   
    221. D(O  13,H  14,C   2,H   9)    -57.1894         0.010000   
    222. D(H  12,H  14,O  13,H   8)    107.6645         0.493428   
    223. D(C   3,H  14,C   2,C   1)   -117.5158         0.010000   
    224. D(C   4,H  14,O  13,H   8)     82.2415         0.493428   
    225. D(O  13,H  14,C   2,C   3)    176.2869         0.010000   
    226. D(O  13,H  14,C   2,C   1)     58.7711         0.010000   
    227. D(H   9,H  14,H  12,C   4)     23.5384         0.010000   
    228. D(H   8,H  14,C   1,C   2)   -123.8918         0.010000   
    229. D(H   8,H  14,C   1,C   0)    124.4105         0.010000   
    230. D(H   8,H  14,H  12,C   4)    -25.5999         0.010000   
    231. D(H   8,H  14,C   3,C   2)    -26.9028         0.010000   
    232. D(C   3,H  14,H  12,C   4)     37.1888         0.010000   
    233. D(C   3,H  14,C   1,H   8)    159.0313         0.010000   
    234. D(C   3,H  14,C   1,H   7)    160.6884         0.010000   
    235. D(H  12,H  14,C   3,C   4)    -25.1076         0.010000   
    236. D(C   0,H  14,H  11,C   3)    -15.8695         0.010000   
    237. D(C   3,H  14,C   1,C   2)     35.1395         0.010000   
    238. D(H   6,H  14,H  11,C   3)    -23.5060         0.010000   
    239. D(H   6,H  14,C   3,C   2)    -79.3836         0.010000   
    240. D(C   3,H  14,C   1,C   0)    -76.5582         0.010000   
    241. D(H  12,H  14,H  11,C   3)    -64.5404         0.010000   
    242. D(H   8,H  14,H  11,C   3)     25.9379         0.010000   
    243. D(C   4,H  14,C   1,H   8)   -159.9254         0.010000   
    244. D(C   4,H  14,C   1,H   7)   -158.2683         0.010000   
    245. D(C   0,H  14,H   9,C   2)     20.7214         0.010000   
    246. D(C   3,H  14,C   4,C   0)    111.6698         0.010000   
    247. D(C   3,H  14,C   4,H  12)   -122.9884         0.010000   
    248. D(C   4,H  14,C   1,C   2)     76.1828         0.010000   
    249. D(C   4,H  14,C   1,C   0)    -35.5149         0.010000   
    250. D(H   8,H  14,C   4,H  12)    152.8296         0.010000   
    251. D(H  12,H  14,C   4,C   0)   -125.3419         0.010000   
    252. D(H  12,H  14,H   9,C   2)    -20.4363         0.010000   
    253. D(H  11,H  14,C   4,C   0)    136.7011         0.010000   
    254. D(H  11,H  14,C   4,C   3)     25.0313         0.010000   
    255. D(H  11,H  14,C   4,H  12)    -97.9571         0.010000   
    256. D(H   8,H  14,H   9,C   2)     69.6927         0.010000   
    257. D(O  13,H  14,C   1,H   8)    -22.4760         0.010000   
    258. D(O  13,H  14,C   1,H   7)    -20.8189         0.010000   
    259. D(H   9,H  14,H   8,C   1)    -64.3599         0.010000   
    260. D(O  13,H  14,C   1,C   2)   -146.3678         0.010000   
    261. D(O  13,H  14,C   1,C   0)    101.9345         0.010000   
    262. D(H  11,H  14,H   8,O  13)    171.7862         0.010000   
    263. D(H  11,H  14,H   8,C   1)    -26.6963         0.010000   
    264. D(H   8,H  14,C   0,H   5)   -147.1093         0.010000   
    265. D(H  12,H  14,H   8,C   1)     25.9228         0.010000   
    266. D(H   8,H  14,C   0,C   4)   -142.1356         0.010000   
    267. D(C   3,H  14,H   8,O  13)   -178.5274         0.010000   
    268. D(C   3,H  14,H   8,C   1)    -17.0099         0.010000   
    269. D(H   8,H  14,C   0,C   1)    -25.1446         0.010000   
    270. D(C   4,H  14,H   8,O  13)   -145.2233         0.010000   
    271. D(H  12,H  14,H   8,O  13)   -135.5947         0.010000   
    272. D(C   4,H  14,H   8,C   1)     16.2942         0.010000   
    273. D(C   3,H  14,C   0,H   6)   -166.1071         0.010000   
    274. D(H   6,H  14,H   8,C   1)     64.1272         0.010000   
    275. D(H   6,H  14,H   8,O  13)    -97.3903         0.010000   
    276. D(O  13,H  14,H   8,C   1)    161.5175         0.010000   
    277. D(O  13,H  14,H   9,C   2)    142.9687         0.010000   
    278. D(C   4,H  14,H   9,C   2)    -11.5289         0.010000   
    279. D(C   3,H  14,H   9,C   2)    -34.2358         0.010000   
    280. D(C   2,H  14,H   6,C   0)    -20.7484         0.010000   
    281. D(C   3,H  14,C   0,H   5)    -44.0796         0.010000   
    282. D(H  11,H  14,H   9,C   2)    -60.6341         0.010000   
    283. D(H   6,H  14,H   9,C   2)     33.1016         0.010000   
    284. D(C   1,H  14,H   6,C   0)    -40.7776         0.010000   
    285. D(C   1,H  14,H   9,C   2)     40.8515         0.010000   
    286. D(O  13,H  14,H  11,C   3)   -178.2501         0.010000   
    287. D(C   4,H  14,H  11,C   3)    -37.3786         0.010000   
    288. D(H   9,H  14,H   6,C   0)    -33.0546         0.010000   
    289. D(C   3,H  14,C   0,C   4)    -39.1059         0.010000   
    290. D(H  11,H  14,H   6,C   0)     20.0598         0.010000   
    291. D(H   9,H  14,H  11,C   3)     61.1467         0.010000   
    292. D(H  12,H  14,H   6,C   0)     60.4125         0.010000   
    293. D(C   1,H  14,H  11,C   3)     15.9072         0.010000   
    294. D(C   2,H  14,H  11,C   3)     34.8479         0.010000   
    295. D(O  13,H  14,H  12,C   4)   -140.3273         0.010000   
    296. D(C   3,H  14,C   0,C   1)     77.8852         0.010000   
    297. D(H   8,H  14,H   6,C   0)    -69.4486         0.010000   
    298. D(H  11,H  14,H  12,C   4)     64.1555         0.010000   
    299. D(H   6,H  14,H  12,C   4)    -61.2784         0.010000   
    300. D(C   3,H  14,H   6,C   0)     11.2453         0.010000   
    301. D(C   0,H  14,H  12,C   4)    -34.9859         0.010000   
    302. D(C   1,H  14,H  12,C   4)    -15.8550         0.010000   
    303. D(C   2,H  14,H  12,C   4)     15.8132         0.010000   
    304. D(C   4,H  14,C   0,H   6)   -127.0013         0.010000   
    305. D(C   4,H  14,H   6,C   0)     33.9549         0.010000   
    306. D(H  11,H  14,O  13,H   8)   -154.5429         0.493428   
    307. D(H   6,H  14,O  13,H   8)     51.9280         0.493428   
    308. D(O  13,H  14,H   6,C   0)   -168.4608         0.010000   
    309. D(C   0,H  14,O  13,H   8)     46.6236         0.493428   
    310. D(C   1,H  14,O  13,H   8)      8.4513         0.493428   
    311. D(C   2,H  14,O  13,H   8)    -24.1642         0.493428   
    312. D(C   4,H  14,C   0,H   5)     -4.9737         0.010000   
    -----------------------------------------------------------------

Number of atoms                         .... 15
Number of degrees of freedom            .... 312


         *************************************************************
         *                GEOMETRY OPTIMIZATION CYCLE   1            *
         *************************************************************
---------------------------------
CARTESIAN COORDINATES (ANGSTROEM)
---------------------------------
  C      1.891035    1.385557   -0.000000
  C      0.668368    2.241114    0.330215
  C     -0.554298    1.385556   -0.000002
  C      0.000000    0.000000    0.000000
  C      1.336736   -0.000000   -0.000000
  H      2.300707    1.631191   -0.985068
  H      2.675046    1.510895    0.752414
  H      0.668367    3.188691   -0.218319
  H      0.668365    2.488363    1.399963
  H     -1.338310    1.510889    0.752411
  H     -0.963969    1.631187   -0.985072
  H     -0.615007   -0.889077   -0.028030
  H      1.951740   -0.889080   -0.028031
  O      0.983579    0.161669    3.303126
  H      0.686441    0.100135    2.371550

----------------------------
CARTESIAN COORDINATES (A.U.)
----------------------------
  NO LB      ZA    FRAG     MASS         X           Y           Z
   0 C     4.0000*   0    12.011    3.573538    2.618323   -0.000000
   1 C     4.0000*   0    12.011    1.263032    4.235092    0.624016
   2 C     4.0000*   0    12.011   -1.047471    2.618321   -0.000004
   3 C     4.0000*   0    12.011    0.000000    0.000000    0.000000
   4 C     4.0000*   0    12.011    2.526065   -0.000000   -0.000000
   5 H     1.0000    0     1.008    4.347706    3.082504   -1.861509
   6 H     1.0000    0     1.008    5.055104    2.855178    1.421856
   7 H     1.0000    0     1.008    1.263031    6.025753   -0.412563
   8 H     1.0000    0     1.008    1.263027    4.702325    2.645547
   9 H     1.0000    0     1.008   -2.529039    2.855166    1.421851
  10 H     1.0000    0     1.008   -1.821637    3.082497   -1.861516
  11 H     1.0000    0     1.008   -1.162195   -1.680112   -0.052969
  12 H     1.0000    0     1.008    3.688254   -1.680118   -0.052971
  13 O     6.0000*   0    15.999    1.858695    0.305510    6.242004
  14 H     1.0000    0     1.008    1.297185    0.189228    4.481580
* core charge reduced due to ECP

--------------------------------
INTERNAL COORDINATES (ANGSTROEM)
--------------------------------
 C      0   0   0     0.000000000000     0.00000000     0.00000000
 C      1   0   0     1.528376367052     0.00000000     0.00000000
 C      2   1   0     1.528376558970   106.25587240     0.00000000
 C      3   2   1     1.492317560690   102.86153966    20.05492842
 C      4   3   2     1.336736000000   111.80410446   347.19589363
 H      1   2   3     1.094772201951   111.60250272    98.21168977
 H      1   2   3     1.093850853527   111.13834974   220.07404988
 H      2   1   3     1.094893474310   112.09985287   237.22358906
 H      2   1   3     1.097949384769   109.66784741   118.45820875
 H      3   2   1     1.093850309504   111.13848351   139.92574810
 H      3   2   1     1.094772954225   111.60260653   261.78843303
 H      4   3   2     1.081423692582   123.51011836   168.97738571
 H      5   4   3     1.081424478813   124.65948713   181.80591138
 O      9   2   1     3.022398755955   116.11382439   308.50838579
 H     14   9   2     0.979750615196    54.40829434   339.59901814

---------------------------
INTERNAL COORDINATES (A.U.)
---------------------------
 C      0   0   0     0.000000000000     0.00000000     0.00000000
 C      1   0   0     2.888212763286     0.00000000     0.00000000
 C      2   1   0     2.888213125958   106.25587240     0.00000000
 C      3   2   1     2.820071494546   102.86153966    20.05492842
 C      4   3   2     2.526064953353   111.80410446   347.19589363
 H      1   2   3     2.068819640717   111.60250272    98.21168977
 H      1   2   3     2.067078544521   111.13834974   220.07404988
 H      2   1   3     2.069048812263   112.09985287   237.22358906
 H      2   1   3     2.074823646120   109.66784741   118.45820875
 H      3   2   1     2.067077516468   111.13848351   139.92574810
 H      3   2   1     2.068821062309   111.60260653   261.78843303
 H      4   3   2     2.043594613714   123.51011836   168.97738571
 H      5   4   3     2.043596099476   124.65948713   181.80591138
 O      9   2   1     5.711505916260   116.11382439   308.50838579
 H     14   9   2     1.851460342260    54.40829434   339.59901814

---------------------
BASIS SET INFORMATION
---------------------
There are 3 groups of distinct atoms

 Group   1 Type C   : 6s6p2d contracted to 2s2p1d pattern {42/42/2}
 Group   2 Type H   : 8s2p contracted to 2s1p pattern {53/2}
 Group   3 Type O   : 6s6p2d contracted to 2s2p1d pattern {42/42/2}

Atom   0C    basis set group =>   1
Atom   1C    basis set group =>   1
Atom   2C    basis set group =>   1
Atom   3C    basis set group =>   1
Atom   4C    basis set group =>   1
Atom   5H    basis set group =>   2
Atom   6H    basis set group =>   2
Atom   7H    basis set group =>   2
Atom   8H    basis set group =>   2
Atom   9H    basis set group =>   2
Atom  10H    basis set group =>   2
Atom  11H    basis set group =>   2
Atom  12H    basis set group =>   2
Atom  13O    basis set group =>   3
Atom  14H    basis set group =>   2
---------------------------------
AUXILIARY/J BASIS SET INFORMATION
---------------------------------
There are 3 groups of distinct atoms

 Group   1 Type C   : 12s5p4d2f1g contracted to 6s4p3d1f1g pattern {711111/2111/211/2/1}
 Group   2 Type H   : 5s2p1d contracted to 3s1p1d pattern {311/2/1}
 Group   3 Type O   : 12s5p4d2f1g contracted to 6s4p3d1f1g pattern {711111/2111/211/2/1}

Atom   0C    basis set group =>   1
Atom   1C    basis set group =>   1
Atom   2C    basis set group =>   1
Atom   3C    basis set group =>   1
Atom   4C    basis set group =>   1
Atom   5H    basis set group =>   2
Atom   6H    basis set group =>   2
Atom   7H    basis set group =>   2
Atom   8H    basis set group =>   2
Atom   9H    basis set group =>   2
Atom  10H    basis set group =>   2
Atom  11H    basis set group =>   2
Atom  12H    basis set group =>   2
Atom  13O    basis set group =>   3
Atom  14H    basis set group =>   2
-------------------------
ECP PARAMETER INFORMATION
-------------------------

 Group 1, Type C  ECP vDZP-ECP (replacing 2 core electrons, lmax=3)
 Group 2, Type O  ECP vDZP-ECP (replacing 2 core electrons, lmax=3)

Atom   0C    ECP group =>   1
Atom   1C    ECP group =>   1
Atom   2C    ECP group =>   1
Atom   3C    ECP group =>   1
Atom   4C    ECP group =>   1
Atom  13O    ECP group =>   2

------------------------------------------------------------------------------
                             ORCA STARTUP CALCULATIONS
                           -- RI-GTO INTEGRALS CHOSEN --
------------------------------------------------------------------------------
------------------------------------------------------------------------------
                   ___                                                        
                  /   \      - P O W E R E D   B Y -                         
                 /     \                                                     
                 |  |  |   _    _      __       _____    __    __             
                 |  |  |  | |  | |    /  \     |  _  \  |  |  /  |          
                  \  \/   | |  | |   /    \    | | | |  |  | /  /          
                 / \  \   | |__| |  /  /\  \   | |_| |  |  |/  /          
                |  |  |   |  __  | /  /__\  \  |    /   |      \           
                |  |  |   | |  | | |   __   |  |    \   |  |\   \          
                \     /   | |  | | |  |  |  |  | |\  \  |  | \   \       
                 \___/    |_|  |_| |__|  |__|  |_| \__\ |__|  \__/        
                                                                              
                      - O R C A' S   B I G   F R I E N D -                    
                                      &                                       
                       - I N T E G R A L  F E E D E R -                       
                                                                              
 v1 FN, 2020, v2 2021, v3 2022-2024                                           
------------------------------------------------------------------------------


----------------------
SHARK INTEGRAL PACKAGE
----------------------

Number of atoms                             ...     15
Number of basis functions                   ...    123
Number of shells                            ...     57
Maximum angular momentum                    ...      2
Integral batch strategy                     ... SHARK/LIBINT Hybrid
RI-J (if used) integral strategy            ... SPLIT-RIJ (Revised 2003 algorithm where possible)
Printlevel                                  ...      1
Contraction scheme used                     ... SEGMENTED contraction
Prescreening option                         ... SCHWARTZ
   Thresh                                   ... 2.500e-11
   Tcut                                     ... 2.500e-12
   Tpresel                                  ... 2.500e-12 
Coulomb Range Separation                    ... NOT USED
Exchange Range Separation                   ... Long Range
   Mu parameter                             ... 3.000e-01
   Scaling (regular/separated)              ... 1.670e-01 8.330e-01
Robust (split-)RI terms used:
  metric    (central integrals)             ... YES
  density   (r.h.s.  integrals)             ... YES
  potential (l.h.s.  integrals)             ... YES
Multipole approximations                    ... NOT USED
Finite Nucleus Model                        ... NOT USED
CABS basis                                  ... NOT available
Auxiliary Coulomb fitting basis             ... AVAILABLE
   # of basis functions in Aux-J            ...    393
   # of shells in Aux-J                     ...    135
   Maximum angular momentum in Aux-J        ...      4
Auxiliary J/K fitting basis                 ... NOT available
Auxiliary Correlation fitting basis         ... NOT available
Auxiliary 'external' fitting basis          ... NOT available

Checking pre-screening integrals            ... done (  0.0 sec) Dimension = 57
   => SHARK Basis and OBASIS are compatible. Storing Pre-screening
Shell pair information
Shell pair cut-off parameter TPreSel        ...   2.5e-12
Total number of shell pairs                 ...      1653
Shell pairs after pre-screening             ...      1653
Total number of primitive shell pairs       ...     15441
Primitive shell pairs kept                  ...     13780
          la=0 lb=0:    465 shell pairs
          la=1 lb=0:    630 shell pairs
          la=1 lb=1:    231 shell pairs
          la=2 lb=0:    180 shell pairs
          la=2 lb=1:    126 shell pairs
          la=2 lb=2:     21 shell pairs

Checking whether 4 symmetric matrices of dimension 123 fit in memory
:Max Core in MB      =   4096.00
 MB in use           =      6.94
 MB left             =   4089.06
 MB needed           =      0.23
 Data fit in memory  = YES
Calculating RI/J V-Matrix + Cholesky decomp.... done (  0.0 sec)
Calculating Nuclear repulsion               ... done (  0.0 sec) ENN=    126.238790542726 Eh

Diagonalization of the overlap matrix:
Smallest eigenvalue                        ... 1.430e-03
Time for diagonalization                   ...    0.001 sec
Threshold for overlap eigenvalues          ... 1.000e-07
Number of eigenvalues below threshold      ... 0
Time for construction of square roots      ...    0.001 sec
Total time needed                          ...    0.002 sec

-------------------
DFT GRID GENERATION
-------------------

General Integration Accuracy     IntAcc      ... 4.388
Radial Grid Type                 RadialGrid  ... OptM3 with GC (2021)
Angular Grid (max. ang.)         AngularGrid ... 4 (Lebedev-302)
Angular grid pruning method      GridPruning ... 4 (adaptive)
Weight generation scheme         WeightScheme... mBecke (2022)
Basis function cutoff            BFCut       ... 1.0000e-11
Integration weight cutoff        WCut        ... 1.0000e-14
Partially contracted basis set               ... off
Rotationally invariant grid construction     ... off
Angular grids for H and He will be reduced by one unit

Total number of grid points                  ...    65055
Total number of batches                      ...     1023
Average number of points per batch           ...       63
Average number of grid points per atom       ...     4337

--------------------
COSX GRID GENERATION
--------------------

GRIDX 1
-------
General Integration Accuracy     IntAcc      ... 3.816
Radial Grid Type                 RadialGrid  ... OptM3 with GC (2021)
Angular Grid (max. ang.)         AngularGrid ... 1 (Lebedev-50)
Angular grid pruning method      GridPruning ... 4 (adaptive)
Weight generation scheme         WeightScheme... mBecke (2022)
Basis function cutoff            BFCut       ... 1.0000e-11
Integration weight cutoff        WCut        ... 1.0000e-14
Partially contracted basis set               ... on
Rotationally invariant grid construction     ... off
Angular grids for H and He will be reduced by one unit

Total number of grid points                  ...     8360
Total number of batches                      ...       75
Average number of points per batch           ...      111
Average number of grid points per atom       ...      557
UseSFitting                                  ... on

GRIDX 2
-------
General Integration Accuracy     IntAcc      ... 4.020
Radial Grid Type                 RadialGrid  ... OptM3 with GC (2021)
Angular Grid (max. ang.)         AngularGrid ... 2 (Lebedev-110)
Angular grid pruning method      GridPruning ... 4 (adaptive)
Weight generation scheme         WeightScheme... mBecke (2022)
Basis function cutoff            BFCut       ... 1.0000e-11
Integration weight cutoff        WCut        ... 1.0000e-14
Partially contracted basis set               ... on
Rotationally invariant grid construction     ... off
Angular grids for H and He will be reduced by one unit

Total number of grid points                  ...    17666
Total number of batches                      ...      147
Average number of points per batch           ...      120
Average number of grid points per atom       ...     1178
UseSFitting                                  ... on

GRIDX 3
-------
General Integration Accuracy     IntAcc      ... 4.338
Radial Grid Type                 RadialGrid  ... OptM3 with GC (2021)
Angular Grid (max. ang.)         AngularGrid ... 3 (Lebedev-194)
Angular grid pruning method      GridPruning ... 4 (adaptive)
Weight generation scheme         WeightScheme... mBecke (2022)
Basis function cutoff            BFCut       ... 1.0000e-11
Integration weight cutoff        WCut        ... 1.0000e-14
Partially contracted basis set               ... on
Rotationally invariant grid construction     ... off
Angular grids for H and He will be reduced by one unit

Total number of grid points                  ...    38648
Total number of batches                      ...      311
Average number of points per batch           ...      124
Average number of grid points per atom       ...     2577
UseSFitting                                  ... on
Grids setup in   1.0 sec
Initializing property integral containers    ... done (  0.0 sec)

SHARK setup successfully completed in   1.2 seconds

Maximum memory used throughout the entire STARTUP-calculation: 30.4 MB
-------------------------------------------------------------------------------
                                 ORCA GUESS
                   Start orbitals & Density for SCF / CASSCF
-------------------------------------------------------------------------------

------------
SCF SETTINGS
------------
Hamiltonian:
 Density Functional     Method          .... DFT(GTOs)
 Exchange Functional    Exchange        .... WB97X-V
 Correlation Functional Correlation     .... WB97X-V
 Gradients option       PostSCFGGA      .... off
 Hybrid DFT is turned on
   Fraction HF Exchange ScalHFX         ....  0.167000
   Scaling of DF-GGA-X  ScalDFX         ....  0.000000
   Scaling of DF-GGA-C  ScalDFC         ....  1.000000
   Scaling of DF-LDA-C  ScalLDAC        ....  1.000000
   Perturbative correction              ....  0.000000
 Long-range corrected/Screened/Range-Separated Hybrid DFT is turned on
   Amount of maximum screened exact exchange              ....  0.833000
   Range separation parameter mu (erf(mu*r12)/r12)        ....  0.300000
   NL short-range parameter             ....  6.000000
   NL long-range parameter              ....  0.010000
 RI-approximation to the Coulomb term is turned on
   Number of AuxJ basis functions       .... 393
   RIJ-COSX (HFX calculated with COS-X)).... on


General Settings:
 Integral files         IntName         .... opt
 Hartree-Fock type      HFTyp           .... UHF
 Total Charge           Charge          ....    0
 Multiplicity           Mult            ....    2
 Number of Electrons    NEL             ....   35
 Basis Dimension        Dim             ....  123
 Nuclear Repulsion      ENuc            ....    126.2387905427 Eh

Convergence Acceleration:
 AO-DIIS                CNVDIIS         .... on
   Start iteration      DIISMaxIt       ....    12
   Startup error        DIISStart       ....  0.200000
   # of expansion vecs  DIISMaxEq       ....     5
   Bias factor          DIISBfac        ....   1.050
   Max. coefficient     DIISMaxC        ....  10.000
 MO-DIIS                CNVKDIIS        .... off
 Trust-Rad. Augm. Hess. CNVTRAH         .... auto
   Auto Start mean grad. ratio tolernc. ....  1.125000
   Auto Start start iteration           ....    50
   Auto Start num. interpolation iter.  ....    10
   Max. Number of Micro iterations      ....    24
   Max. Number of Macro iterations      .... Maxiter - #DIIS iter
   Number of Davidson start vectors     ....     2
   Converg. threshold    (grad. norm)   ....   1.000e-05
   Grad. Scal. Fac. for Micro threshold ....   0.100
   Minimum threshold for Micro iter.    ....   1.000e-02
   NR start threshold (gradient norm)   ....   1.000e-04
   Initial trust radius                 ....   0.400
   Minimum AH scaling param. (alpha)    ....   1.000
   Maximum AH scaling param. (alpha)    .... 1000.000
   Quad. conv. algorithm                .... NR
   White noise on init. David. guess    .... on
   Maximum white noise                  ....   0.010
   Pseudo random numbers                .... off
   Inactive MOs                         .... canonical
   Orbital update algorithm             .... Taylor
   Preconditioner                       .... Diag
   Full preconditioner red. dimension   ....   250
 SOSCF                 CNVSOSCF           .... on
   Start iteration     SOSCFMaxIt         ....   150
   Startup grad/error  SOSCFStart         ....  0.003300
   Hessian update      SOSCFHessUp        .... L-BFGS
   Autom. constraints  SOSCFAutoConstrain .... off
 Level Shifting         CNVShift        .... on
   Level shift para.    LevelShift      ....    0.2500
   Turn off err/grad.   ShiftErr        ....    0.0010
 Zerner damping         CNVZerner       .... off
 Static damping         CNVDamp         .... on
   Fraction old density DampFac         ....    0.7000
   Max. Damping (<1)    DampMax         ....    0.9800
   Min. Damping (>=0)   DampMin         ....    0.0000
   Turn off err/grad.   DampErr         ....    0.1000

SCF Procedure:
 Maximum # iterations   MaxIter         ....   125
 SCF integral mode      SCFMode         .... Direct
   Integral package                     .... SHARK and LIBINT hybrid scheme
 Reset frequency        DirectResetFreq ....    20
 Integral Threshold     Thresh          ....  2.500e-11 Eh
 Primitive CutOff       TCut            ....  2.500e-12 Eh

Convergence Tolerance:
 Convergence Check Mode ConvCheckMode   .... Total+1el-Energy
 Convergence forced     ConvForced      .... 0
 Energy Change          TolE            ....  1.000e-08 Eh
 1-El. energy change                    ....  1.000e-05 Eh
 Orbital Gradient       TolG            ....  1.000e-05
 Orbital Rotation angle TolX            ....  1.000e-05
 DIIS Error             TolErr          ....  5.000e-07

------------------------------
INITIAL GUESS: MODEL POTENTIAL
------------------------------
Loading Hartree-Fock densities                     ... done
Atomic calculation to generate a density for atom 0 (C  with ECP)
  Multiplicity assumed   :    1
  Atomic configuration   : 1s2 2s2 2p2 
  Number of open shells  : 1
  Command: /software/software/custom-built/orca/orca_6_1_0_linux_x86-64_shared_openmpi418_avx2/orca opt_atom6.inp "" > opt_atom6.out
Returned from the atomic calculation with res=0
Atomic calculation to generate a density for atom 13 (O  with ECP)
  Multiplicity assumed   :    3
  Atomic configuration   : 1s2 2s2 2p4 
  Number of open shells  : 1
  Command: /software/software/custom-built/orca/orca_6_1_0_linux_x86-64_shared_openmpi418_avx2/orca opt_atom8.inp "" > opt_atom8.out
Returned from the atomic calculation with res=0
Calculating cut-offs                               ... done
Initializing the effective Hamiltonian             ... done
Setting up the integral package (SHARK)            ... done
Starting the Coulomb interaction                   ... done (   0.2 sec)
Making the grid                                    ... done (   0.1 sec)
Mapping shells                                     ... done
Starting the XC term evaluation                    ... done (   0.2 sec)
  promolecular density results
     # of electrons  =     46.993082686
     EX              =    -24.256634486
     EC              =     -1.885520413
     EX+EC           =    -26.142154898
Transforming the Hamiltonian                       ... done (   0.0 sec)
Diagonalizing the Hamiltonian                      ... done (   0.0 sec)
Back transforming the eigenvectors                 ... done (   0.0 sec)
Now organizing SCF variables                       ... done
                      ------------------
                      INITIAL GUESS DONE (   1.3 sec)
                      ------------------
             **** ENERGY FILE WAS UPDATED (opt.en.tmp) ****
Finished Guess after   1.3 sec
Maximum memory used throughout the entire GUESS-calculation: 13.1 MB

-------------------------------------------------------------------------------------------
                                      ORCA LEAN-SCF
                              memory conserving SCF solver
-------------------------------------------------------------------------------------------

----------------------------------------D-I-I-S--------------------------------------------
Iteration    Energy (Eh)           Delta-E    RMSDP     MaxDP     DIISErr   Damp  Time(sec)
-------------------------------------------------------------------------------------------
               ***  Starting incremental Fock matrix formation  ***
    1    -49.4150822857020557     0.00e+00  2.80e-03  1.04e-01  1.79e-01  0.700  10.8
Warning: op=1 Small HOMO/LUMO gap (   0.091) - skipping pre-diagonalization
         Will do a full diagonalization
    2    -49.5715610074097413    -1.56e-01  2.01e-03  8.90e-02  7.64e-02  0.700   5.5
                               ***Turning on AO-DIIS***
    3    -49.6438976825929501    -7.23e-02  1.13e-03  5.07e-02  2.84e-02  0.700   5.5
    4    -49.6911403748106579    -4.72e-02  2.83e-03  1.39e-01  1.78e-02  0.000   5.4
    5    -49.8218391053147798    -1.31e-01  9.06e-04  3.78e-02  2.29e-02  0.000   5.5
    6    -49.8336000146935874    -1.18e-02  1.02e-03  3.52e-02  1.90e-02  0.000   5.4
    7    -49.8434200348928869    -9.82e-03  4.05e-04  1.69e-02  1.80e-02  0.000   5.4
    8    -49.8468734226394758    -3.45e-03  5.98e-04  1.92e-02  1.12e-02  0.000   5.2
    9    -49.8499927926152679    -3.12e-03  2.49e-04  9.50e-03  7.71e-03  0.000   5.3
   10    -49.8511035207074258    -1.11e-03  1.88e-04  7.24e-03  4.33e-03  0.000   5.1
                              *** Initializing SOSCF ***
---------------------------------------S-O-S-C-F--------------------------------------
Iteration    Energy (Eh)           Delta-E    RMSDP     MaxDP     MaxGrad    Time(sec)
--------------------------------------------------------------------------------------
   11    -49.8515669549755103    -4.63e-04  1.14e-04  4.12e-03  2.89e-03     5.0
               *** Restarting incremental Fock matrix formation ***
   12    -49.8517552123105077    -1.88e-04  6.48e-05  2.10e-03  2.42e-03    10.7
   13    -49.8518048578420974    -4.96e-05  1.04e-04  3.78e-03  1.55e-03     9.0
   14    -49.8518431705493015    -3.83e-05  2.22e-05  1.04e-03  6.11e-04     9.1
   15    -49.8518476344306123    -4.46e-06  2.31e-05  1.00e-03  3.50e-04     8.5
   16    -49.8518497177670667    -2.08e-06  5.45e-06  1.50e-04  8.45e-05     8.5
   17    -49.8518499231596763    -2.05e-07  3.96e-06  1.74e-04  7.21e-05     7.9
   18    -49.8518500159540565    -9.28e-08  4.05e-06  2.75e-04  7.16e-05     7.6
   19    -49.8518500949654140    -7.90e-08  8.99e-06  7.21e-04  7.09e-05     7.4
   20    -49.8518502384858664    -1.44e-07  1.42e-05  1.24e-03  6.97e-05     7.6
   21    -49.8518504368748268    -1.98e-07  2.38e-05  2.18e-03  7.66e-05     7.6
   22    -49.8518507451576056    -3.08e-07  4.27e-05  4.01e-03  1.25e-04     7.8
   23    -49.8518512905183968    -5.45e-07  8.82e-05  8.36e-03  1.77e-04     8.0
   24    -49.8518524486427168    -1.16e-06  2.06e-04  1.96e-02  2.25e-04     8.3
   25    -49.8518553026741245    -2.85e-06  7.01e-04  6.43e-02  3.22e-04     8.5
   26    -49.8518633849875243    -8.08e-06  3.61e-04  3.04e-02  1.22e-03     9.0
   27    -49.8518705282137091    -7.14e-06  7.22e-04  5.31e-02  1.25e-03     8.6
   28    -49.8518894936483150    -1.90e-05  7.23e-04  4.58e-02  6.87e-04     9.2
   29    -49.8518917345743660    -2.24e-06  1.27e-04  8.40e-03  2.26e-03     8.8
   30    -49.8518981629050302    -6.43e-06  5.23e-04  3.61e-02  7.02e-04     8.4
               *** Scaled step length from 0.445542 to 0.200000 ***
   31    -49.8519068299463584    -8.67e-06  1.43e-03  1.08e-01  7.30e-04     8.8
               *** Restarting incremental Fock matrix formation ***
   32    -49.8518982133252564     8.62e-06  7.76e-04  5.98e-02  3.70e-03    10.7
   33    -49.8519154281133012    -1.72e-05  1.03e-04  7.83e-03  2.39e-04     8.9
   34    -49.8519164758063766    -1.05e-06  2.75e-04  2.11e-02  9.86e-05     8.2
   35    -49.8519176212294326    -1.15e-06  2.31e-04  1.79e-02  3.18e-04     8.6
   36    -49.8519182557203635    -6.34e-07  1.52e-04  1.18e-02  4.11e-04     8.3
   37    -49.8519187572400710    -5.02e-07  5.08e-05  3.96e-03  2.12e-04     7.9
   38    -49.8519188110631148    -5.38e-08  5.08e-05  3.97e-03  1.88e-04     7.9
   39    -49.8519189206683961    -1.10e-07  2.50e-06  1.93e-04  1.69e-05     7.3
   40    -49.8519189194571481     1.21e-09  6.86e-07  5.20e-05  1.84e-06     6.2
                 **** Energy Check signals convergence ****

               *****************************************************
               *                     SUCCESS                       *
               *           SCF CONVERGED AFTER  40 CYCLES          *
               *****************************************************

Recomputing exchange energy using gridx3       ... done (   20.320 sec)
Old exchange energy                            :     -6.813325421 Eh
New exchange energy                            :     -6.813348039 Eh
Exchange energy change after final integration :     -0.000022618 Eh
Total energy after final integration           :    -49.851941534 Eh
             **** ENERGY FILE WAS UPDATED (opt.en.tmp) ****

----------------
TOTAL SCF ENERGY
----------------

Total Energy       :        -49.85194153355641 Eh           -1356.54029 eV

Components:
Nuclear Repulsion  :        126.23879054272601 Eh            3435.13213 eV
Electronic Energy  :       -176.09070945792431 Eh           -4791.67181 eV
One Electron Energy:       -325.25991353383938 Eh           -8850.77221 eV
Two Electron Energy:        149.16920407591508 Eh            4059.10040 eV

Virial components:
Potential Energy   :        -88.85594296730467 Eh           -2417.89313 eV
Kinetic Energy     :         39.00400143374826 Eh            1061.35284 eV
Virial Ratio       :          2.27812377451155

DFT components:
N(Alpha)           :       18.000015104339 electrons
N(Beta)            :       17.000009032361 electrons
N(Total)           :       35.000024136700 electrons
E(X)               :       -7.457254272438 Eh       
E(C)               :       -1.298040445631 Eh       
E(XC)              :       -8.755294718069 Eh       

---------------
SCF CONVERGENCE
---------------

  Last Energy change         ...   -1.2112e-09  Tolerance :   1.0000e-08
  Last MAX-Density change    ...    5.1993e-05  Tolerance :   1.0000e-07
  Last RMS-Density change    ...    6.8570e-07  Tolerance :   5.0000e-09
  Last DIIS Error            ...    2.8946e-03  Tolerance :   5.0000e-07
  Last Orbital Gradient      ...    1.8374e-06  Tolerance :   1.0000e-05
  Last Orbital Rotation      ...    8.7550e-05  Tolerance :   1.0000e-05


----------------------
UHF SPIN CONTAMINATION
----------------------

Warning: in a DFT calculation there is little theoretical justification to 
         calculate <S**2> as in Hartree-Fock theory. We will do it anyways
         but you should keep in mind that the values have only limited relevance

Expectation value of <S**2>     :     0.752362
Ideal value S*(S+1) for S=0.5   :     0.750000
Deviation                       :     0.002362

----------------
ORBITAL ENERGIES
----------------
                 SPIN UP ORBITALS
  NO   OCC          E(Eh)            E(eV) 
   0   1.0000      -1.124093       -30.5881 
   1   1.0000      -1.003011       -27.2933 
   2   1.0000      -0.856859       -23.3163 
   3   1.0000      -0.856223       -23.2990 
   4   1.0000      -0.708497       -19.2792 
   5   1.0000      -0.665140       -18.0994 
   6   1.0000      -0.631447       -17.1826 
   7   1.0000      -0.607183       -16.5223 
   8   1.0000      -0.579774       -15.7765 
   9   1.0000      -0.527000       -14.3404 
  10   1.0000      -0.521950       -14.2030 
  11   1.0000      -0.497975       -13.5506 
  12   1.0000      -0.468472       -12.7478 
  13   1.0000      -0.468172       -12.7396 
  14   1.0000      -0.459041       -12.4911 
  15   1.0000      -0.457201       -12.4411 
  16   1.0000      -0.453203       -12.3323 
  17   1.0000      -0.356109        -9.6902 
  18   0.0000       0.078651         2.1402 
  19   0.0000       0.085284         2.3207 
  20   0.0000       0.100457         2.7336 
  21   0.0000       0.107780         2.9328 
  22   0.0000       0.112083         3.0499 
  23   0.0000       0.136965         3.7270 
  24   0.0000       0.140725         3.8293 
  25   0.0000       0.154771         4.2115 
  26   0.0000       0.159796         4.3483 
  27   0.0000       0.185129         5.0376 
  28   0.0000       0.261873         7.1259 

                 SPIN DOWN ORBITALS
  NO   OCC          E(Eh)            E(eV) 
   0   1.0000      -1.051562       -28.6144 
   1   1.0000      -1.002752       -27.2863 
   2   1.0000      -0.856860       -23.3163 
   3   1.0000      -0.856210       -23.2987 
   4   1.0000      -0.708458       -19.2781 
   5   1.0000      -0.665135       -18.0992 
   6   1.0000      -0.631437       -17.1823 
   7   1.0000      -0.604833       -16.4583 
   8   1.0000      -0.554659       -15.0930 
   9   1.0000      -0.525534       -14.3005 
  10   1.0000      -0.497949       -13.5499 
  11   1.0000      -0.468373       -12.7451 
  12   1.0000      -0.468174       -12.7397 
  13   1.0000      -0.458585       -12.4787 
  14   1.0000      -0.457211       -12.4413 
  15   1.0000      -0.426479       -11.6051 
  16   1.0000      -0.355644        -9.6776 
  17   0.0000      -0.058768        -1.5992 
  18   0.0000       0.079855         2.1730 
  19   0.0000       0.085798         2.3347 
  20   0.0000       0.101132         2.7519 
  21   0.0000       0.109517         2.9801 
  22   0.0000       0.112561         3.0629 
  23   0.0000       0.137001         3.7280 
  24   0.0000       0.140907         3.8343 
  25   0.0000       0.155495         4.2312 
  26   0.0000       0.163328         4.4444 
  27   0.0000       0.187175         5.0933 
*Only the first 10 virtual orbitals were printed.

                    ********************************
                    * MULLIKEN POPULATION ANALYSIS *
                    ********************************

--------------------------------------------
MULLIKEN ATOMIC CHARGES AND SPIN POPULATIONS
--------------------------------------------
   0 C :   -0.065729    0.000201
   1 C :   -0.065541    0.000583
   2 C :   -0.069572   -0.000107
   3 C :   -0.062172    0.001709
   4 C :   -0.053733   -0.002580
   5 H :    0.046570   -0.000054
   6 H :    0.053376   -0.000501
   7 H :    0.041387    0.000097
   8 H :    0.037933   -0.001171
   9 H :    0.048453   -0.000195
  10 H :    0.047620    0.000228
  11 H :    0.026783   -0.000090
  12 H :    0.026895   -0.000025
  13 O :   -0.192756    1.013855
  14 H :    0.180486   -0.011950
Sum of atomic charges         :    0.0000000
Sum of atomic spin populations:    1.0000000

-----------------------------------------------------
MULLIKEN REDUCED ORBITAL CHARGES AND SPIN POPULATIONS
-----------------------------------------------------
CHARGE
  0 C s       :     0.977422  s :     0.977422
      pz      :     1.055166  p :     2.987964
      px      :     0.994332
      py      :     0.938466
      dz2     :     0.015747  d :     0.100343
      dxz     :     0.025816
      dyz     :     0.014768
      dx2y2   :     0.023313
      dxy     :     0.020699

  1 C s       :     0.996879  s :     0.996879
      pz      :     1.044827  p :     2.971550
      px      :     0.926486
      py      :     1.000237
      dz2     :     0.021401  d :     0.097112
      dxz     :     0.013670
      dyz     :     0.015770
      dx2y2   :     0.024968
      dxy     :     0.021304

  2 C s       :     0.977848  s :     0.977848
      pz      :     1.057590  p :     2.990781
      px      :     0.992415
      py      :     0.940777
      dz2     :     0.015617  d :     0.100943
      dxz     :     0.026213
      dyz     :     0.014989
      dx2y2   :     0.023450
      dxy     :     0.020674

  3 C s       :     1.052403  s :     1.052403
      pz      :     0.971775  p :     2.913033
      px      :     0.985248
      py      :     0.956010
      dz2     :     0.004828  d :     0.096735
      dxz     :     0.021910
      dyz     :     0.008235
      dx2y2   :     0.025071
      dxy     :     0.036692

  4 C s       :     1.054559  s :     1.054559
      pz      :     0.958687  p :     2.902041
      px      :     0.985646
      py      :     0.957707
      dz2     :     0.004887  d :     0.097133
      dxz     :     0.022202
      dyz     :     0.008321
      dx2y2   :     0.025125
      dxy     :     0.036597

  5 H s       :     0.909233  s :     0.909233
      pz      :     0.020971  p :     0.044197
      px      :     0.011830
      py      :     0.011396

  6 H s       :     0.902538  s :     0.902538
      pz      :     0.016444  p :     0.044085
      px      :     0.017058
      py      :     0.010583

  7 H s       :     0.914715  s :     0.914715
      pz      :     0.013222  p :     0.043898
      px      :     0.010786
      py      :     0.019890

  8 H s       :     0.918706  s :     0.918706
      pz      :     0.022729  p :     0.043361
      px      :     0.010133
      py      :     0.010499

  9 H s       :     0.907461  s :     0.907461
      pz      :     0.016143  p :     0.044086
      px      :     0.017166
      py      :     0.010776

 10 H s       :     0.908266  s :     0.908266
      pz      :     0.020942  p :     0.044114
      px      :     0.011785
      py      :     0.011386

 11 H s       :     0.925186  s :     0.925186
      pz      :     0.012606  p :     0.048031
      px      :     0.014931
      py      :     0.020494

 12 H s       :     0.925065  s :     0.925065
      pz      :     0.012522  p :     0.048040
      px      :     0.014990
      py      :     0.020528

 13 O s       :     1.813132  s :     1.813132
      pz      :     1.437929  p :     4.365966
      px      :     1.388220
      py      :     1.539817
      dz2     :     0.008251  d :     0.013658
      dxz     :     0.003513
      dyz     :     0.001297
      dx2y2   :     0.000166
      dxy     :     0.000431

 14 H s       :     0.712207  s :     0.712207
      pz      :     0.052162  p :     0.107307
      px      :     0.026489
      py      :     0.028656


SPIN
  0 C s       :     0.000038  s :     0.000038
      pz      :     0.000112  p :     0.000193
      px      :     0.000053
      py      :     0.000028
      dz2     :    -0.000000  d :    -0.000029
      dxz     :    -0.000015
      dyz     :    -0.000013
      dx2y2   :     0.000000
      dxy     :    -0.000001

  1 C s       :     0.000054  s :     0.000054
      pz      :     0.000565  p :     0.000510
      px      :     0.000019
      py      :    -0.000073
      dz2     :     0.000006  d :     0.000019
      dxz     :     0.000001
      dyz     :     0.000009
      dx2y2   :     0.000002
      dxy     :     0.000001

  2 C s       :     0.000021  s :     0.000021
      pz      :    -0.000177  p :    -0.000180
      px      :     0.000036
      py      :    -0.000040
      dz2     :     0.000007  d :     0.000053
      dxz     :     0.000004
      dyz     :     0.000041
      dx2y2   :     0.000001
      dxy     :    -0.000000

  3 C s       :     0.000082  s :     0.000082
      pz      :     0.001620  p :     0.001676
      px      :     0.000018
      py      :     0.000038
      dz2     :    -0.000025  d :    -0.000049
      dxz     :    -0.000022
      dyz     :    -0.000001
      dx2y2   :    -0.000002
      dxy     :     0.000000

  4 C s       :    -0.000067  s :    -0.000067
      pz      :    -0.002366  p :    -0.002543
      px      :    -0.000109
      py      :    -0.000068
      dz2     :    -0.000012  d :     0.000030
      dxz     :     0.000036
      dyz     :     0.000005
      dx2y2   :    -0.000000
      dxy     :     0.000001

  5 H s       :    -0.000053  s :    -0.000053
      pz      :    -0.000000  p :    -0.000000
      px      :    -0.000001
      py      :     0.000001

  6 H s       :    -0.000499  s :    -0.000499
      pz      :    -0.000002  p :    -0.000002
      px      :    -0.000001
      py      :     0.000001

  7 H s       :     0.000095  s :     0.000095
      pz      :     0.000002  p :     0.000002
      px      :     0.000000
      py      :    -0.000000

  8 H s       :    -0.001205  s :    -0.001205
      pz      :     0.000044  p :     0.000034
      px      :    -0.000000
      py      :    -0.000010

  9 H s       :    -0.000203  s :    -0.000203
      pz      :     0.000007  p :     0.000007
      px      :     0.000000
      py      :    -0.000000

 10 H s       :     0.000230  s :     0.000230
      pz      :    -0.000002  p :    -0.000002
      px      :     0.000000
      py      :     0.000000

 11 H s       :    -0.000087  s :    -0.000087
      pz      :    -0.000004  p :    -0.000003
      px      :     0.000000
      py      :     0.000001

 12 H s       :    -0.000003  s :    -0.000003
      pz      :    -0.000022  p :    -0.000022
      px      :    -0.000001
      py      :     0.000000

 13 O s       :     0.008845  s :     0.008845
      pz      :     0.054086  p :     1.004093
      px      :     0.527448
      py      :     0.422558
      dz2     :    -0.000030  d :     0.000917
      dxz     :     0.000299
      dyz     :     0.000377
      dx2y2   :     0.000064
      dxy     :     0.000207

 14 H s       :    -0.025072  s :    -0.025072
      pz      :     0.000110  p :     0.013122
      px      :     0.007589
      py      :     0.005423



                     *******************************
                     * LOEWDIN POPULATION ANALYSIS *
                     *******************************

-------------------------------------------
LOEWDIN ATOMIC CHARGES AND SPIN POPULATIONS
-------------------------------------------
   0 C :   -0.083056   -0.000112
   1 C :   -0.069621    0.000202
   2 C :   -0.085945    0.000190
   3 C :   -0.044563    0.000745
   4 C :   -0.037794   -0.001649
   5 H :    0.048271   -0.000045
   6 H :    0.048461   -0.000166
   7 H :    0.043520    0.000058
   8 H :    0.046220   -0.000051
   9 H :    0.045805    0.000052
  10 H :    0.048584    0.000137
  11 H :    0.035199    0.000009
  12 H :    0.036312   -0.000034
  13 O :   -0.044576    0.973310
  14 H :    0.013183    0.027355

----------------------------------------------------
[...]
      dxz     :     0.042885
      dyz     :     0.056399
      dx2y2   :     0.078339
      dxy     :     0.065572

  2 C s       :     0.757614  s :     0.757614
      pz      :     1.063799  p :     3.005991
      px      :     0.995985
      py      :     0.946206
      dz2     :     0.051261  d :     0.317963
      dxz     :     0.082114
      dyz     :     0.043320
      dx2y2   :     0.074752
      dxy     :     0.066516

  3 C s       :     0.808914  s :     0.808914
      pz      :     0.870363  p :     2.925333
      px      :     1.054530
      py      :     1.000439
      dz2     :     0.021640  d :     0.308958
      dxz     :     0.050883
      dyz     :     0.027638
      dx2y2   :     0.082773
      dxy     :     0.126024

  4 C s       :     0.808614  s :     0.808614
      pz      :     0.864046  p :     2.920213
      px      :     1.054879
      py      :     1.001288
      dz2     :     0.021784  d :     0.310114
      dxz     :     0.051599
      dyz     :     0.027759
      dx2y2   :     0.082715
      dxy     :     0.126256

  5 H s       :     0.798703  s :     0.798703
      pz      :     0.065748  p :     0.154028
      px      :     0.045652
      py      :     0.042627

  6 H s       :     0.800948  s :     0.800948
      pz      :     0.054220  p :     0.152857
      px      :     0.056673
      py      :     0.041965

  7 H s       :     0.804871  s :     0.804871
      pz      :     0.050024  p :     0.153404
      px      :     0.041916
      py      :     0.061464

  8 H s       :     0.801836  s :     0.801836
      pz      :     0.068743  p :     0.153365
      px      :     0.040918
      py      :     0.043704

  9 H s       :     0.802690  s :     0.802690
      pz      :     0.053867  p :     0.153048
      px      :     0.057023
      py      :     0.042158

 10 H s       :     0.798461  s :     0.798461
      pz      :     0.065951  p :     0.154060
      px      :     0.045443
      py      :     0.042666

 11 H s       :     0.809919  s :     0.809919
      pz      :     0.044548  p :     0.153978
      px      :     0.046762
      py      :     0.062668

 12 H s       :     0.809585  s :     0.809585
      pz      :     0.043920  p :     0.153451
      px      :     0.046927
      py      :     0.062604

 13 O s       :     1.634290  s :     1.634290
      pz      :     1.525159  p :     4.385825
      px      :     1.226876
      py      :     1.633791
      dz2     :     0.019059  d :     0.024441
      dxz     :     0.004721
      dyz     :     0.000263
      dx2y2   :     0.000146
      dxy     :     0.000251

 14 H s       :     0.642273  s :     0.642273
      pz      :     0.186687  p :     0.350376
      px      :     0.071618
      py      :     0.092071


SPIN
  0 C s       :    -0.000003  s :    -0.000003
      pz      :    -0.000006  p :     0.000023
      px      :     0.000008
      py      :     0.000022
      dz2     :    -0.000000  d :    -0.000106
      dxz     :    -0.000039
      dyz     :    -0.000061
      dx2y2   :    -0.000003
      dxy     :    -0.000002

  1 C s       :     0.000004  s :     0.000004
      pz      :     0.000002  p :    -0.000012
      px      :    -0.000001
      py      :    -0.000012
      dz2     :     0.000004  d :     0.000020
      dxz     :     0.000003
      dyz     :     0.000008
      dx2y2   :     0.000003
      dxy     :     0.000001

  2 C s       :     0.000004  s :     0.000004
      pz      :     0.000059  p :     0.000060
      px      :     0.000006
      py      :    -0.000004
      dz2     :     0.000025  d :     0.000082
      dxz     :    -0.000001
      dyz     :     0.000057
      dx2y2   :    -0.000000
      dxy     :     0.000001

  3 C s       :    -0.000029  s :    -0.000029
      pz      :     0.000498  p :     0.000487
      px      :    -0.000004
      py      :    -0.000007
      dz2     :    -0.000056  d :    -0.000158
      dxz     :    -0.000092
      dyz     :    -0.000002
      dx2y2   :    -0.000006
      dxy     :    -0.000002

  4 C s       :    -0.000054  s :    -0.000054
      pz      :    -0.001475  p :    -0.001522
      px      :    -0.000021
      py      :    -0.000026
      dz2     :    -0.000055  d :     0.000017
      dxz     :     0.000064
      dyz     :     0.000002
      dx2y2   :    -0.000000
      dxy     :     0.000006

  5 H s       :    -0.000036  s :    -0.000036
      pz      :    -0.000001  p :    -0.000003
      px      :     0.000000
      py      :    -0.000002

  6 H s       :    -0.000096  s :    -0.000096
      pz      :    -0.000011  p :    -0.000011
      px      :     0.000000
      py      :    -0.000000

  7 H s       :     0.000013  s :     0.000013
      pz      :     0.000002  p :     0.000002
      px      :    -0.000000
      py      :     0.000000

  8 H s       :    -0.000091  s :    -0.000091
      pz      :    -0.000006  p :    -0.000013
      px      :    -0.000000
      py      :    -0.000006

  9 H s       :     0.000056  s :     0.000056
      pz      :    -0.000011  p :    -0.000010
      px      :    -0.000000
      py      :     0.000001

 10 H s       :     0.000103  s :     0.000103
      pz      :     0.000006  p :     0.000007
      px      :    -0.000001
      py      :     0.000002

 11 H s       :    -0.000048  s :    -0.000048
      pz      :     0.000041  p :     0.000041
      px      :     0.000001
      py      :    -0.000001

 12 H s       :     0.000135  s :     0.000135
      pz      :    -0.000126  p :    -0.000130
      px      :    -0.000003
      py      :    -0.000002

 13 O s       :     0.008075  s :     0.008075
      pz      :     0.056015  p :     0.965151
      px      :     0.648489
      py      :     0.260647
      dz2     :    -0.000556  d :    -0.000336
      dxz     :    -0.000054
      dyz     :     0.000063
      dx2y2   :     0.000047
      dxy     :     0.000164

 14 H s       :    -0.018755  s :    -0.018755
      pz      :     0.004148  p :     0.047134
      px      :     0.032199
      py      :     0.010787



                      *****************************
                      * MAYER POPULATION ANALYSIS *
                      *****************************

  NA   - Mulliken gross atomic population
  ZA   - Total nuclear charge
  QA   - Mulliken gross atomic charge
  VA   - Mayer's total valence
  BVA  - Mayer's bonded valence
  FA   - Mayer's free valence

  ATOM       NA         ZA         QA         VA         BVA        FA
  0 C      4.0655     4.0000    -0.0655     4.0147     4.0147     0.0000
  1 C      4.0499     4.0000    -0.0499     3.9722     3.9722     0.0000
  2 C      4.0690     4.0000    -0.0690     4.0144     4.0144     0.0000
  3 C      4.0608     4.0000    -0.0608     4.0177     4.0177     0.0000
  4 C      4.0580     4.0000    -0.0580     4.0208     4.0208     0.0000
  5 H      0.9558     1.0000     0.0442     1.0269     1.0269     0.0000
  6 H      0.9508     1.0000     0.0492     1.0203     1.0203     0.0000
  7 H      0.9608     1.0000     0.0392     1.0315     1.0315     0.0000
  8 H      0.9642     1.0000     0.0358     1.0304     1.0304     0.0000
  9 H      0.9542     1.0000     0.0458     1.0200     1.0200     0.0000
 10 H      0.9550     1.0000     0.0450     1.0269     1.0269     0.0000
 11 H      0.9716     1.0000     0.0284     1.0458     1.0458     0.0000
 12 H      0.9713     1.0000     0.0287     1.0456     1.0456     0.0000
 13 O      6.1920     6.0000    -0.1920     2.0223     1.0487     0.9736
 14 H      0.8212     1.0000     0.1788     1.0845     1.0836     0.0009

  Mayer bond orders larger than 0.100000
B(  0-C ,  1-C ) :   0.9798 B(  0-C ,  4-C ) :   1.0279 B(  0-C ,  5-H ) :   0.9824 
B(  0-C ,  6-H ) :   0.9898 B(  1-C ,  2-C ) :   0.9794 B(  1-C ,  7-H ) :   1.0040 
B(  1-C ,  8-H ) :   0.9972 B(  2-C ,  3-C ) :   1.0276 B(  2-C ,  9-H ) :   0.9909 
B(  2-C , 10-H ) :   0.9826 B(  3-C ,  4-C ) :   1.9056 B(  3-C , 11-H ) :   0.9985 
B(  4-C , 12-H ) :   0.9989 B( 13-O , 14-H ) :   1.0490 

-------
TIMINGS
-------

Total SCF time: 0 days 0 hours 1 min 8 sec 

Total time                  ....      68.389 sec
Sum of individual times     ....      62.383 sec  ( 91.2%)

SCF preparation             ....       0.088 sec  (  0.1%)
Fock matrix formation       ....      62.186 sec  ( 90.9%)
  Startup                   ....       0.002 sec  (  0.0% of F)
  Split-RI-J                ....       1.843 sec  (  3.0% of F)
  Chain of spheres X        ....      61.912 sec  ( 99.6% of F)
  XC integration            ....       4.267 sec  (  6.9% of F)
    XC Preparation          ....       0.000 sec  (  0.0% of XC)
    Basis function eval.    ....       1.440 sec  ( 33.7% of XC)
    Density eval.           ....       0.897 sec  ( 21.0% of XC)
    XC-Functional eval.     ....       0.785 sec  ( 18.4% of XC)
    XC-Potential eval.      ....       1.059 sec  ( 24.8% of XC)
Diagonalization             ....       0.000 sec  (  0.0%)
Density matrix formation    ....       0.018 sec  (  0.0%)
Total Energy calculation    ....       0.003 sec  (  0.0%)
Population analysis         ....       0.037 sec  (  0.1%)
Orbital Transformation      ....       0.009 sec  (  0.0%)
Orbital Orthonormalization  ....       0.000 sec  (  0.0%)
DIIS solution               ....       0.007 sec  (  0.0%)
SOSCF solution              ....       0.035 sec  (  0.1%)
Finished LeanSCF after  68.4 sec

Maximum memory used throughout the entire LEANSCF-calculation: 23.1 MB


-------------------------------------------------------------------------------
                          DFT DISPERSION CORRECTION                            
                                                                               
                                DFTD4 V3.4.0                                   
-------------------------------------------------------------------------------
The wB97X-3c composite method is recognized
Using three-body term ABC
Active option DFTDOPT                   ...         5   

-------------------------   ----------------
Dispersion correction           -0.012989331
-------------------------   ----------------


-------------------------   --------------------
FINAL SINGLE POINT ENERGY       -49.866121323466
-------------------------   --------------------

                                *** OPTIMIZATION RUN DONE ***


------------------------------------------------------------------------------
                              ORCA PROPERTY CALCULATIONS
------------------------------------------------------------------------------

GBWName                                 ... opt.gbw
Number of atoms                         ...     15
Number of basis functions               ...    123
Max core memory                         ...   4096 MB

Electric properties:
Dipole moment                           ... YES
Quadrupole moment                       ...  NO
Static polarizability (Dipole/Dipole)   ...  NO
Static polarizability (Dipole/Quad.)    ...  NO
Static polarizability (Quad./Quad.)     ...  NO
Static polarizability (Velocity)        ...  NO
Static hyperpolarizability              ...  NO

Atomic electric properties:
Dipole moment                           ...  NO
Quadrupole moment                       ...  NO
Static polarizability                   ...  NO

Choice of electric origin               ... Center of mass
Position of electric origin             ...     1.370992     1.589908     1.356346

General magnetic properties:
Magnetizability                         ...  NO

EPR properties:
g-Tensor (aka g-matrix)                 ...  NO
Zero-Field splitting spin-orbit         ...  NO
Zero-field splitting spin-spin          ...  NO
Hyperfine couplings                     ...  NO (   0 nuclei)
Quadrupole couplings                    ...  NO (   0 nuclei)
Contact density                         ...  NO (   0 nuclei)

NMR properties:
Chemical shifts                         ...  NO (   0 nuclei)
Spin-rotation constants                 ...  NO (   0 nuclei)
Spin-spin couplings                     ...  NO (   0 nuclei,    0 pairs)

Choice of magnetic origin               ... GIAO
Position of magnetic origin             ...     0.000000     0.000000     0.000000

Properties with geometric perturbations:
SCF Hessian                             ...  NO
IR spectrum                             ...  NO
VCD spectrum                            ...  NO
X-ray spectroscopy properties:
SCF XES/XAS/RIXS spectra                ...  NO

SCF SOC stabilization energy            ...  NO
Diagonal Born-Oppenheimer correction    ...  NO

-------------
DIPOLE MOMENT
-------------

Method             : SCF
Type of density    : Electron Density
Multiplicity       :   2
Irrep              :   0
Energy             :   -49.8531319922116012 Eh
Basis              : AO
                                X                 Y                 Z
Electronic contribution:      0.107155161      -2.155276801       0.163329398
Nuclear contribution   :     -0.275310123       2.339812328      -1.092567169
                        -----------------------------------------
Total Dipole Moment    :     -0.168154962       0.184535526      -0.929237771
                        -----------------------------------------
Magnitude (a.u.)       :      0.962191398
Magnitude (Debye)      :      2.445696171



--------------------
Rotational spectrum 
--------------------
 
Rotational constants in cm-1:             0.140754             0.073967             0.071700 
Rotational constants in MHz :          4219.701904          2217.476420          2149.501820 

Dipole components along the rotational axes: 
x,y,z [a.u.] :    -0.927229     0.117740     0.228466 
x,y,z [Debye]:    -2.356828     0.299270     0.580713 

 

Dipole moment calculation done in   0.0 sec 

Maximum memory used throughout the entire PROP-calculation: 12.3 MB

--------------------------------
SUGGESTED CITATIONS FOR THIS RUN
--------------------------------

Below you find a list of papers that are relevant to this ORCA run
We neither can nor want to force you to cite these papers, but we appreciate if you do
You receive ORCA, which is the product of decades of hard work by many enthusiastic individuals, for free
The only thing we kindly ask in return is that you cite our papers,
We deeply appreciate it, if you show your appreciation for ORCA by not just citing the generic ORCA reference.

Please note that relegating all ORCA citations to the supporting information does *not* help us.
SI sections are not indexed - citations you put there will not count into any citation statistics
But we need these citations in order to attract the funding resources that allow us to do what we are doing

Therefore, if you are a happy ORCA user, please consider citing a few of the papers listed below in the main body of your paper

In addition to the list printed below, the program has created the file opt.bibtex that contains the list in bibtex format
You can import this file easily into all common literature databanks and citation aid programs


List of essential papers. We consider these as the minimum necessary citations

  1. Mueller, M.; Hansen, A.; Grimme, S.
     wB97X-3c: A composite range-separated hybrid DFT method with a molecule-optimized polarized valence double-zeta basis set
     J. Chem. Phys. 2023 158 , 014103
     doi.org/10.1063/5.0133026
  2. Neese, F.
     Software update: the ORCA program system, version 6.0
     WIRES Comput. Molec. Sci. 2025 15(1), e70019
     doi.org/10.1002/wcms.7019

List of papers to cite with high priority. The work reported in these papers was absolutely
necessary for this run to complete.
Our perspective: the developers of density functionals and basis sets usually get cited in chemistry papers
Good! But without the algorithms to do something with them, the functionals or basis sets would not do anything.
Hence, in our opinion, the algorithm design and method developments papers are equally worthy of getting cited

  1. Neese, F.
     An improvement of the resolution of the identity approximation for the formation of the Coulomb matrix
     J. Comp. Chem. 2003 24(14), 1740-1747
     doi.org/10.1002/jcc.10318
  2. Neese, F.; Wennmohs, F.; Hansen, A.; Becker, U.
     Efficient, approximate and parallel Hartree-Fock and hybrid DFT calculations. A 'chain-of-spheres' algorithm for the Hartree-Fock exchange
     Chem. Phys. 2009 356(1-3), 98-109
     doi.org/10.1016/j.chemphys.2008.10.036
  3. Caldeweyher, E.; Bannwarth, C.; Grimme, S.
     Extension of the D3 dispersion coefficient model
     J. Chem. Phys. 2017 147 , 034112
     doi.org/10.1063/1.4993215
  4. Caldeweyher, E.; Ehlert, S.; Hansen, A.; Neugebauer, H.; Spicher, S.; Bannwarth, C.; Grimme, S.
     A generally applicable atomic-charge dependent London dispersion correction
     J. Chem. Phys. 2019 150 , 154122
     doi.org/10.1063/1.5090222
  5. Caldeweyher, E.; Mewes, J.; Ehlert, S.; Grimme, S.
     Extension and evaluation of the D4 London-dispersion model for periodic systems
     Phys. Chem. Chem. Phys. 2020 22(16), 8499-8512
     doi.org/10.1039/D0CP00502A
  6. Helmich-Paris, B.; de Souza, B.; Neese, F.; Izsák, R.
     An improved chain of spheres for exchange algorithm
     J. Chem. Phys. 2021 155(10), 104109
     doi.org/10.1063/5.0058766
  7. Neese, F.
     The SHARK Integral Generation and Digestion System
     J. Comp. Chem. 2022 44(3), 381
     doi.org/10.1002/jcc.26942
  8. Wittmann, L.; Gordiy, I.; Friede, M.; Helmich-Paris, B.; Grimme, S.; Hansen, A.; Bursch, M.
     Extension of the D3 and D4 London Dispersion Corrections to the full Actinides Series
     Phys. Chem. Chem. Phys. 2024 26(32), 21379-21394
     doi.org/10.1039/D4CP01514B

List of suggested additional citations. These are papers that are important in the 'surrounding' of 
of this run, or papers that preceded the highly important papers. If you like your results we are grateful for a citation.

  1. Izsak, R.; Neese, F.
     An overlap fitted chain of spheres exchange method
     J. Chem. Phys. 2011 135 , 144105
     doi.org/10.1063/1.3646921
  2. Izsak, R.; Hansen, A.; Neese, F.
     The resolution of identity and chain of spheres approximations for the LPNO-CCSD singles Fock term
     Molec. Phys. 2012 110 , 2413-2417
     doi.org/10.1080/00268976.2012.687466
  3. Neese, F.
     The ORCA program system
     WIRES Comput. Molec. Sci. 2012 2(1), 73-78
     doi.org/10.1002/wcms.81
  4. Izsak, R.; Neese, F.; Klopper, W.
     Robust fitting techniques in the chain of spheres approximation to the Fock exchange: The role of the complementary space
     J. Chem. Phys. 2013 139 , 
     doi.org/10.1063/1.4819264
  5. Neese, F.
     Software update: the ORCA program system, version 4.0
     WIRES Comput. Molec. Sci. 2018 8(1), 1-6
     doi.org/10.1002/wcms.1327
  6. Neese, F.; Wennmohs, F.; Becker, U.; Riplinger, C.
     The ORCA quantum chemistry program package
     J. Chem. Phys. 2020 152(22), 224108
     doi.org/10.1063/5.0004608
  7. Neese, F.
     Software update: The ORCA program system—Version 5.0
     WIRES Comput. Molec. Sci. 2022 12(1), e1606
     doi.org/10.1002/wcms.1606

List of optional additional citations

  1. Neese, F.
     Approximate second-order SCF convergence for spin unrestricted wavefunctions
     Chem. Phys. Lett. 2000 325(1-3), 93-98
     doi.org/10.1016/s0009-2614(00)00662-x

Timings for individual modules:

Sum of individual times          ...     3627.168 sec (=  60.453 min)
Startup calculation              ...       33.269 sec (=   0.554 min)   0.9 %
SCF iterations                   ...     2442.795 sec (=  40.713 min)  67.3 %
Property calculations            ...        0.077 sec (=   0.001 min)   0.0 %
SCF Gradient evaluation          ...     1150.539 sec (=  19.176 min)  31.7 %
Geometry relaxation              ...        0.489 sec (=   0.008 min)   0.0 %
                             ****ORCA TERMINATED NORMALLY****
TOTAL RUN TIME: 0 days 1 hours 0 minutes 29 seconds 461 msec
