nohup: ignoring input

                                 *****************
                                 * O   R   C   A *
                                 *****************

                                            #,                                       
                                            ###                                      
                                            ####                                     
                                            #####                                    
                                            ######                                   
                                           ########,                                 
                                     ,,################,,,,,                         
                               ,,#################################,,                 
                          ,,##########################################,,             
                       ,#########################################, ''#####,          
                    ,#############################################,,   '####,        
                  ,##################################################,,,,####,       
                ,###########''''           ''''###############################       
              ,#####''   ,,,,##########,,,,          '''####'''          '####       
            ,##' ,,,,###########################,,,                        '##       
           ' ,,###''''                  '''############,,,                           
         ,,##''                                '''############,,,,        ,,,,,,###''
      ,#''                                            '''#######################'''  
     '                                                          ''''####''''         
             ,#######,   #######,   ,#######,      ##                                
            ,#'     '#,  ##    ##  ,#'     '#,    #''#        ,####,    ,#,          
            ##       ##  ##   ,#'  ##            #'  '#       #'       ,# #          
            ##       ##  #######   ##           ,######,      #####,      #          
            '#,     ,#'  ##    ##  '#,     ,#' ,#      #,     #,   #      #          
             '#######'   ##     ##  '#######'  #'      '#     '####' #    #          



                #########################################################
                #                        -***-                          #
                #          Department of theory and spectroscopy        #
                #                                                       #
                #                      Frank Neese                      #
                #                                                       #
                #     Directorship, Architecture, Infrastructure        #
                #                    SHARK, DRIVERS                     #
                #        Core code/Algorithms in most modules           #
                #                                                       #
                #        Max Planck Institute fuer Kohlenforschung      #
                #                Kaiser Wilhelm Platz 1                 #
                #                 D-45470 Muelheim/Ruhr                 #
                #                      Germany                          #
                #                                                       #
                #                  All rights reserved                  #
                #                        -***-                          #
                #########################################################


                         Program Version 6.1.0  -  RELEASE   -
                                (GIT: $679e74b$)
                          ($2025-06-10 18:02:51 +0200$)


 With contributions from (in alphabetic order):
[Max-Planck-Institut fuer Kohlenforschung]                               
  Daniel Aravena         : Magnetic Suceptibility                        
  Michael Atanasov       : Ab Initio Ligand Field Theory (pilot matlab implementation)
  Alexander A. Auer      : GIAO ZORA, VPT2 properties, NMR spectrum      
  Ute Becker             : All parallelization in ORCA, NUMFREQ, NUMCALC 
  Giovanni Bistoni       : ED, misc. LED, open-shell LED, HFLD           
  Dmytro Bykov           : pre 5.0 version of the SCF Hessian            
  Marcos Casanova-Páez   : Triplet and SCS-CIS(D). UHF-(DLPNO)-IP/EA/STEOM-CCSD. UHF-CVS-IP/STEOM-CCSD   
  Vijay G. Chilkuri      : MRCI spin determinant printing, contributions to CSF-ICE 
  Pauline Colinet        : FMM embedding                                 
  Dipayan Datta          : RHF DLPNO-CCSD density                        
  Achintya Kumar Dutta   : EOM-CC, STEOM-CC                              
  Nicolas Foglia         : Exact transition moments, OPA infrastructure, MCD improvements    
  Dmitry Ganyushin       : Spin-Orbit,Spin-Spin,Magnetic field MRCI      
  Miquel Garcia-Rates    : C-PCM and meta-GGA Hessian, CCSD/C-PCM, Gaussian charge scheme 
  Tiago L. C. Gouveia    : GS-ROHF, GS-ROCIS                             
  Yang Guo               : DLPNO-NEVPT2, F12-NEVPT2, CIM, IAO-localization        
  Andreas Hansen         : Spin unrestricted coupled pair/coupled cluster methods 
  Ingolf Harden          : AUTO-CI MPn and infrastructure                
  Benjamin Helmich-Paris : MC-RPA, TRAH-(SCF,CASSCF), AVAS, COSX integrals, SCF dyn. polar., MC-PDFT, srDFT 
  Lee Huntington         : MR-EOM, pCC                                   
  Robert Izsak           : Overlap fitted RIJCOSX, COSX-SCS-MP3, EOM     
  Riya Kayal             : Wick's Theorem for AUTO-CI, AUTO-CI UHF-CCSDT 
  Emily Kempfer          : AUTO-CI RHF CISDT and CCSDT, approximate NEVPT4
  Christian Kollmar      : KDIIS, OOCD, Brueckner-CCSD(T), CCSD density, CASPT2, CASPT2-K, improved NEVPT2 
  Axel Koslowski         : Symmetry handling                             
  Simone Kossmann        : meta-GGA functionals, TD-DFT gradient, OOMP2, (MP2 Hessian; deprecated post 5.0) 
  Lucas Lang             : DCDCAS, Hyperfine gauge corrections, ICE-SOC+SSC
  Marvin Lechner         : AUTO-CI (C++ implementation), FIC-MRCC        
  Spencer Leger          : CASSCF response                               
  Dagmar Lenk            : GEPOL surface, SMD, ORCA-2-JSON               
  Dimitrios Liakos       : Extrapolation schemes; Compound Job, Property file
  Dimitrios Manganas     : Further ROCIS development; embedding schemes. LFT, Crystal Embedding 
  Dimitrios Pantazis     : SARC Basis sets                               
  Anastasios Papadopoulos: AUTO-CI, single reference methods and gradients 
  Taras Petrenko         : pre 6.0 DFT Hessian and TD-DFT gradient,  ECA, NRVS 
  Petra Pikulova         : Analytic Raman intensities                    
  Peter Pinski           : DLPNO-MP2, DLPNO-MP2 Gradient                 
  Shashank Vittal Rao    : ES-AILFT, MagRelax                            
  Christoph Reimann      : Effective Core Potentials                     
  Marius Retegan         : Local ZFS, SOC                                
  Christoph Riplinger    : Optimizer, TS searches, QM/MM, DLPNO-CCSD(T), (RO)-DLPNO pert. Triples 
  Michael Roemelt        : Original ROCIS implementation, recursive CI coupling coefficients
  Masaaki Saitow         : Open-shell DLPNO-CCSD energy and density      
  Barbara Sandhoefer     : DKH picture change effects                    
  Yorick L. A. Schmerwitz: GMF and freeze-and-release deltaSCF, NEB S-IDPP initial path                    
  Kantharuban Sivalingam : CASSCF convergence/infrastructure, NEVPT2, NEVPT3, NEVPT4(SD), FIC-MRCI and CEPA variants
  Bernardo de Souza      : ESD, SOC TD-DFT                               
  Georgi L. Stoychev     : AutoAux, RI-MP2 NMR, DLPNO-MP2 response, X2C  
  Van Anh Tran           : RI-MP2 g-tensors                              
  Willem Van den Heuvel  : Paramagnetic NMR                              
  Zikuan Wang            : NOTCH, Electric field optimization            
  Frank Wennmohs         : Technical directorship and infrastructure     
  Hang Xu                : AUTO-CI-Response properties                   
                                                                         
[FACCTs GmbH]                                                            
  Markus Bursch, Nicolas Foglia, Miquel Garcia-Rates, Ingolf Harden, Hagen Neugebauer, Anastasios Papadopoulos, 
  Christoph Riplinger, Bernardo de Souza, Georgi L. Stoychev                                                    
                                                                 
  APM, various basis sets, CI-OPT, improved COSX, DLPNO-Multilevel,           
  DOCKER, DRACO, updates on ESD, Fragmentator, GOAT, IRC, LR-CPCM, L-BFGS, MBIS, meta-GGA TD-DFT gradient, ML-optimized integration grids, 
  MM, NACMEs, nearIR, NEB, NEB-TS, NL-DFT gradient (VV10), 2- and 3-layer-ONIOM, interface openCOSMO-RS, QMMM,   
  Crystal-QMMM, RESP, rigid body optimization, SF, symmetry and pop. for TD-DFT, various functionals, SOLVATOR                                   
                                                                         
[Other institutions]                                                     
  V. Asgeirsson          : NEB                                           
  Christoph Bannwarth    : sTDA-DFT, sTD-DFT, PBEh-3c, B97-3c, D3        
  Giovanni Bistoni       : ETS/NOCV, ADLD/ADEX, COVALED                  
  Martin Brehm           : Molecular dynamics                            
  Ronald Cardenas        : ETS/NOCV                                      
  Martina Colucci        : COVALED                                       
  Sebastian Ehlert       : rSCAN, r2SCAN, r2SCAN-3c, D4, dhf basis sets  
  Marvin Friede          : D4 for Fr, Ra, Ac-Lr                          
  Lars Goerigk           : TD-DFT with DH, B97 family of functionals     
  Stefan Grimme          : VdW corrections, initial TS optimization, DFT functionals, gCP, sTDA/sTD-DF 
  Waldemar Hujo          : DFT-NL                                        
  H. Jonsson             : NEB                                           
  Holger Kruse           : gCP                                           
  Marcel Mueller         : wB97X-3c, vDZP basis set                      
  Hagen Neugebauer       : wr2SCAN, Native XTB                           
  Gianluca Regni         : ADLD/ADEX                                     
  Tobias Risthaus        : pre 6.0 range-separated hybrid DFT and stability analysis
  Lukas Wittmann         : regularized MP2, r2SCAN double-hybrids, wr2SCAN        
                                                                         
We gratefully acknowledge several colleagues who have allowed us to      
interface, adapt or use parts of their codes:                            
  Ed Valeev, F. Pavosevic, A. Kumar             : LibInt (2-el integral package), F12 methods 
  Garnet Chan, S. Sharma, J. Yang, R. Olivares  : DMRG                   
  Ulf Ekstrom                                   : XCFun DFT Library      
  Mihaly Kallay                                 : mrcc  (arbitrary order and MRCC methods)
  Frank Weinhold                                : gennbo (NPA and NBO analysis)           
  Simon Mueller                                 : openCOSMO-RS                            
  Christopher J. Cramer and Donald G. Truhlar   : smd solvation model                     
  S Lehtola, MJT Oliveira, MAL Marques          : LibXC Library                           
  Liviu Ungur et al                             : ANISO software                          


 Your calculation uses the libint2 library for the computation of 2-el integrals
 For citations please refer to: http://libint.valeyev.net

 Your ORCA version has been built with support for libXC version: 7.0.0
 For citations please refer to: https://libxc.gitlab.io

 This ORCA versions uses:
   CBLAS   interface :  Fast vector & matrix operations
   LAPACKE interface :  Fast linear algebra routines
   SCALAPACK package :  Parallel linear algebra routines
   Shared memory     :  Shared parallel matrices
   BLAS/LAPACK       :  OpenBLAS 0.3.29  USE64BITINT DYNAMIC_ARCH NO_AFFINITY SkylakeX SINGLE_THREADED
        Core in use  :  SkylakeX
   Copyright (c) 2011-2014, The OpenBLAS Project


  ***********************************
  * Starting time: Wed Aug 20 16:07:36 2025
  * Host name:     csed-0009
  * Process ID:    1615398
  * Working dir.:  /gpfs/fs1/home/copan/proj/cyclopentene-oh-addition-project/calc/cyC5e1+OH__cyC5y1o2/run-opt
  ***********************************

NOTE: MaxCore=10000 MB was set to SCF,MP2,MDCI,CIPSI,MRCI,RASCI and CIS
      => If you want to overwrite this, your respective input block should be placed after the MaxCore statement


***************************************
The coordinates will be read from file: guess.xyz
***************************************


Your calculation utilizes the atom-pairwise dispersion correction
based on EEQ partial charges (D4)


Warning: RI is on but no J-basis has been assigned. Assigning Def2/J (nothing to worry about!)
================================================================================

----- Orbital basis set information -----
Your calculation utilizes the basis: def2-TZVPP
   F. Weigend and R. Ahlrichs, Phys. Chem. Chem. Phys. 7, 3297 (2005).

----- AuxJ basis set information -----
Your calculation utilizes the auxiliary basis: def2/J
   H-Rn: F. Weigend, Phys. Chem. Chem. Phys. 8, 1057 (2006).
   Fr-Lr: K. Eichkorn, F. Weigend, O. Treutler, R. Ahlrichs; Theor. Chem. Acc. 97, 119 (1997).

----- AuxC basis set information -----
Your calculation utilizes the auxiliary basis: def2-TZVPP/C
  H-La, Hf-Rn : A. Hellweg, C. Hattig, S. Hofener and W. Klopper, Theor. Chem. Acc. 117, 587 (2007).
        Ce-Lu : J. Chmela and M. E. Harding, Mol. Phys. (2018).

================================================================================
                                        WARNINGS
                       Please study these warnings very carefully!
================================================================================


WARNING: your system is open-shell and RHF/RKS was chosen
  ===> : WILL SWITCH to UHF/UKS


WARNING: The frozen-core approximation for MP2-gradient calculations is turned on by default.

WARNING: The environment variable RSH_COMMAND is not set!
  ===> : All Displacements for the Numerical Hessian or Gradient calculation
         will be started on localhost

WARNING: Geometry Optimization
  ===> : Switching off AutoStart
         For restart on a previous wavefunction, please use MOREAD

WARNING: The frozen-core approximation is turned on by default for 
         the MP2 part of double-hybrid DFT.

================================================================================
                                       INPUT FILE
================================================================================
NAME = opt.inp
|  1> % MaxCore 10000
|  2> ! PAL8
|  3> ! REVDSD-PBEP86-D4/2021 def2-TZVPP def2-TZVPP/c
|  4> ! OptTS
|  5> ! NumFreq
|  6> %geom 
|  7>    Calc_Hess true
|  8>    NumHess   true
|  9> end
| 10> * xyzfile 0 2 guess.xyz
| 11> 
| 12>                          ****END OF INPUT****
================================================================================

                       *****************************
                       * Geometry Optimization Run *
                       *****************************

Geometry optimization settings:
Update method            Update   .... Bofill
Choice of coordinates    CoordSys .... (2022) Redundant Internals
Initial Hessian          InHess   .... Almloef's Model
Max. no of cycles        MaxIter  .... 50

Convergence Tolerances:
Energy Change            TolE     ....  5.0000e-06 Eh
Max. Gradient            TolMAXG  ....  3.0000e-04 Eh/bohr
RMS Gradient             TolRMSG  ....  1.0000e-04 Eh/bohr
Max. Displacement        TolMAXD  ....  4.0000e-03 bohr
RMS Displacement         TolRMSD  ....  2.0000e-03 bohr
Strict Convergence                .... False

------------------------------------------------------------------------------
                        ORCA OPTIMIZATION COORDINATE SETUP
------------------------------------------------------------------------------

The optimization will be done in redundant internal coordinates (2022)
Making redundant internal coordinates   ...  (2022 redundants) done
Following TS mode number                ...     0
Evaluating the initial hessian          ...  (Is done on the fly) done
Evaluating the coordinates              ...  done
Calculating the B-matrix                .... done
Calculating the G-matrix                .... done
The number of degrees of freedom        ....   97

    -----------------------------------------------------------------
                    Redundant Internal Coordinates


    -----------------------------------------------------------------
         Definition                    Initial Value    d2E/dq (diagonal element)
    -----------------------------------------------------------------
      1. B(C   1,C   0)                  1.5451         0.000000   
      2. B(C   2,C   1)                  1.5451         0.000000   
      3. B(C   3,C   2)                  1.5096         0.000000   
      4. B(C   4,C   0)                  1.5095         0.000000   
      5. B(C   4,C   3)                  1.3380         0.000000   
      6. B(H   5,C   0)                  1.0957         0.000000   
      7. B(H   6,C   0)                  1.0922         0.000000   
      8. B(H   7,C   1)                  1.0899         0.000000   
      9. B(H   8,C   1)                  1.0916         0.000000   
     10. B(H   9,C   2)                  1.0923         0.000000   
     11. B(H  10,C   2)                  1.0958         0.000000   
     12. B(H  11,C   3)                  1.0835         0.000000   
     13. B(H  12,C   4)                  1.0836         0.000000   
     14. B(O  13,C   4)                  2.1079         0.000000   
     15. B(O  13,C   3)                  2.5291         0.000000   
     16. B(O  13,H  12)                  2.1847         0.000000   
     17. B(H  14,O  13)                  0.9680         0.000000   
     18. B(H  14,H   8)                  2.6421         0.000000   
     19. B(H  14,C   3)                  2.4886         0.000000   
     20. B(H  14,C   4)                  2.4786         0.000000   
     21. A(C   1,C   0,C   4)          102.9264         0.000000   
     22. A(C   4,C   0,H   6)          112.9449         0.000000   
     23. A(H   5,C   0,H   6)          106.8845         0.000000   
     24. A(C   1,C   0,H   5)          111.9619         0.000000   
     25. A(C   4,C   0,H   5)          109.8360         0.000000   
     26. A(C   1,C   0,H   6)          112.3624         0.000000   
     27. A(C   2,C   1,H   8)          109.1397         0.000000   
     28. A(C   2,C   1,H   7)          112.7409         0.000000   
     29. A(C   0,C   1,C   2)          105.5094         0.000000   
     30. A(C   0,C   1,H   7)          112.7499         0.000000   
     31. A(H   7,C   1,H   8)          107.6883         0.000000   
     32. A(C   0,C   1,H   8)          108.9301         0.000000   
     33. A(H   9,C   2,H  10)          106.7464         0.000000   
     34. A(C   1,C   2,H  10)          111.9398         0.000000   
     35. A(C   3,C   2,H   9)          113.0020         0.000000   
     36. A(C   1,C   2,H   9)          112.5039         0.000000   
     37. A(C   1,C   2,C   3)          102.9406         0.000000   
     38. A(C   3,C   2,H  10)          109.7886         0.000000   
     39. A(C   4,C   3,O  13)           56.4216         0.000000   
     40. A(C   2,C   3,O  13)          114.1011         0.000000   
     41. A(C   4,C   3,H  11)          124.8237         0.000000   
     42. A(C   2,C   3,H  11)          123.3055         0.000000   
     43. A(H  11,C   3,O  13)          100.0581         0.000000   
     44. A(C   2,C   3,C   4)          111.7838         0.000000   
     45. A(H  12,C   4,O  13)           79.3451         0.000000   
     46. A(C   3,C   4,O  13)           91.6516         0.000000   
     47. A(C   0,C   4,O  13)          103.3545         0.000000   
     48. A(C   3,C   4,H  12)          124.7663         0.000000   
     49. A(C   0,C   4,H  12)          123.3026         0.000000   
     50. A(C   0,C   4,C   3)          111.8463         0.000000   
     51. A(C   4,O  13,H  14)          100.7735         0.000000   
     52. A(C   3,O  13,C   4)           31.9268         0.000000   
     53. A(C   3,O  13,H  14)           76.5365         0.000000   
     54. D(C   2,C   1,C   0,C   4)    -21.2118         0.000000   
     55. D(H   7,C   1,C   0,C   4)   -144.6735         0.000000   
     56. D(H   7,C   1,C   0,H   6)     93.5280         0.000000   
     57. D(H   7,C   1,C   0,H   5)    -26.7725         0.000000   
     58. D(C   2,C   1,C   0,H   6)   -143.0102         0.000000   
     59. D(C   2,C   1,C   0,H   5)     96.6893         0.000000   
     60. D(H   9,C   2,C   1,H   7)    -93.3028         0.000000   
     61. D(H   9,C   2,C   1,H   8)     26.3138         0.000000   
     62. D(C   3,C   2,C   1,C   0)     21.2790         0.000000   
     63. D(C   3,C   2,C   1,H   8)    -95.6369         0.000000   
     64. D(C   3,C   2,C   1,H   7)    144.7465         0.000000   
     65. D(H   9,C   2,C   1,C   0)    143.2297         0.000000   
     66. D(C   4,C   3,C   2,C   1)    -13.7571         0.000000   
     67. D(C   4,C   3,C   2,H  10)    105.5901         0.000000   
     68. D(H  11,C   3,C   2,H  10)    -71.1626         0.000000   
     69. D(H  11,C   3,C   2,H   9)     47.8767         0.000000   
     70. D(H  11,C   3,C   2,C   1)    169.4902         0.000000   
     71. D(O  13,C   3,C   2,C   1)     47.9675         0.000000   
     72. D(C   4,C   3,C   2,H   9)   -135.3706         0.000000   
     73. D(H  12,C   4,C   3,C   2)   -176.6185         0.000000   
     74. D(C   0,C   4,C   3,O  13)   -105.1003         0.000000   
     75. D(C   0,C   4,C   3,H  11)    176.8135         0.000000   
     76. D(O  13,C   4,C   0,C   1)    -83.7303         0.000000   
     77. D(H  12,C   4,C   0,H   6)    -48.2317         0.000000   
     78. D(H  12,C   4,C   0,H   5)     70.9777         0.000000   
     79. D(C   0,C   4,C   3,C   2)      0.1196         0.000000   
     80. D(H  12,C   4,C   0,C   1)   -169.6350         0.000000   
     81. D(C   3,C   4,C   0,H   6)    134.9744         0.000000   
     82. D(C   3,C   4,C   0,C   1)     13.5711         0.000000   
     83. D(H  12,C   4,C   3,H  11)      0.0755         0.000000   
     84. D(C   3,C   4,C   0,H   5)   -105.8162         0.000000   
     85. D(O  13,C   4,C   3,H  11)    -78.0862         0.000000   
     86. D(O  13,C   4,C   3,C   2)    105.2198         0.000000   
     87. D(H  12,C   4,C   3,O  13)     78.1616         0.000000   
     88. D(C   3,O  13,C   4,H  12)   -125.1032         0.000000   
     89. D(H  14,O  13,C   4,H  12)   -166.2052         0.000000   
     90. D(H  14,O  13,C   4,C   3)    -41.1020         0.000000   
     91. D(H  14,O  13,C   4,C   0)     71.8192         0.000000   
     92. D(C   4,O  13,C   3,H  11)    125.3367         0.000000   
     93. D(C   4,O  13,C   3,C   2)   -101.0112         0.000000   
     94. D(H  14,O  13,C   3,H  11)    -96.2738         0.000000   
     95. D(C   3,O  13,C   4,C   0)    112.9211         0.000000   
     96. D(H  14,O  13,C   3,C   4)    138.3895         0.000000   
     97. D(H  14,O  13,C   3,C   2)     37.3783         0.000000   
    -----------------------------------------------------------------

Number of atoms                         .... 15
Number of degrees of freedom            .... 97


         *************************************************************
         *                GEOMETRY OPTIMIZATION CYCLE   1            *
         *************************************************************
---------------------------------
CARTESIAN COORDINATES (ANGSTROEM)
---------------------------------
  C      1.899717    1.401073    0.000000
  C      0.669579    2.266624    0.353369
  C     -0.560215    1.401786   -0.002925
  C      0.000000    0.000000    0.000000
  C      1.338014    0.000000    0.000000
  H      2.298819    1.641643   -0.991680
  H      2.717958    1.531749    0.711488
  H      0.670367    3.228969   -0.158237
  H      0.670729    2.461945    1.427320
  H     -1.383081    1.534072    0.703165
  H     -0.955206    1.641366   -0.996571
  H     -0.618709   -0.888046   -0.049439
  H      1.955921   -0.888725   -0.050651
  O      1.398768   -0.548904    2.034288
  H      0.687675    0.002187    2.391727

----------------------------
CARTESIAN COORDINATES (A.U.)
----------------------------
  NO LB      ZA    FRAG     MASS         X           Y           Z
   0 C     6.0000    0    12.011    3.589945    2.647644    0.000000
   1 C     6.0000    0    12.011    1.265321    4.283299    0.667771
   2 C     6.0000    0    12.011   -1.058653    2.648992   -0.005527
   3 C     6.0000    0    12.011    0.000000    0.000000    0.000000
   4 C     6.0000    0    12.011    2.528480    0.000000    0.000000
   5 H     1.0000    0     1.008    4.344138    3.102256   -1.874004
   6 H     1.0000    0     1.008    5.136196    2.894586    1.344517
   7 H     1.0000    0     1.008    1.266810    6.101867   -0.299025
   8 H     1.0000    0     1.008    1.267494    4.652402    2.697244
   9 H     1.0000    0     1.008   -2.613644    2.898976    1.328789
  10 H     1.0000    0     1.008   -1.805078    3.101732   -1.883246
  11 H     1.0000    0     1.008   -1.169191   -1.678164   -0.093426
  12 H     1.0000    0     1.008    3.696155   -1.679447   -0.095717
  13 O     8.0000    0    15.999    2.643288   -1.037278    3.844247
  14 H     1.0000    0     1.008    1.299517    0.004133    4.519709

--------------------------------
INTERNAL COORDINATES (ANGSTROEM)
--------------------------------
 C      0   0   0     0.000000000000     0.00000000     0.00000000
 C      1   0   0     1.545085008278     0.00000000     0.00000000
 C      2   1   0     1.545083642757   105.50939886     0.00000000
 C      3   2   1     1.509587159341   102.94056260    21.27902966
 C      4   3   2     1.338014000000   111.78376763   346.24294216
 H      1   2   3     1.095712349891   111.96192170    96.68928247
 H      1   2   3     1.092158287613   112.36244158   216.98977712
 H      2   1   3     1.089884956867   112.74985017   236.53824032
 H      2   1   3     1.091568763726   108.93010574   117.05787763
 H      3   2   1     1.092323728504   112.50393867   143.22969093
 H      3   2   1     1.095786858744   111.93978863   263.43605541
 H      4   3   2     1.083453155202   123.30554070   169.49018863
 H      5   4   3     1.083608190295   124.76633682   183.38147750
 O      5   4   3     2.107917056403    91.65159720   105.21984262
 H     14   5   4     0.968048130855   100.77348276   318.89802987

---------------------------
INTERNAL COORDINATES (A.U.)
---------------------------
 C      0   0   0     0.000000000000     0.00000000     0.00000000
 C      1   0   0     2.919787519273     0.00000000     0.00000000
 C      2   1   0     2.919784938813   105.50939886     0.00000000
 C      3   2   1     2.852706306438   102.94056260    21.27902966
 C      4   3   2     2.528480023353   111.78376763   346.24294216
 H      1   2   3     2.070596262850   111.96192170    96.68928247
 H      1   2   3     2.063880058480   112.36244158   216.98977712
 H      2   1   3     2.059584085959   112.74985017   236.53824032
 H      2   1   3     2.062766019785   108.93010574   117.05787763
 H      3   2   1     2.064192696456   112.50393867   143.22969093
 H      3   2   1     2.070737064177   111.93978863   263.43605541
 H      4   3   2     2.047429742265   123.30554070   169.49018863
 H      5   4   3     2.047722716132   124.76633682   183.38147750
 O      5   4   3     3.983385949624    91.65159720   105.21984262
 H     14   5   4     1.829345851769   100.77348276   318.89802987

---------------------
BASIS SET INFORMATION
---------------------
There are 3 groups of distinct atoms

 Group   1 Type C   : 11s6p2d1f contracted to 5s3p2d1f pattern {62111/411/11/1}
 Group   2 Type H   : 5s2p1d contracted to 3s2p1d pattern {311/11/1}
 Group   3 Type O   : 11s6p2d1f contracted to 5s3p2d1f pattern {62111/411/11/1}

Atom   0C    basis set group =>   1
Atom   1C    basis set group =>   1
Atom   2C    basis set group =>   1
Atom   3C    basis set group =>   1
Atom   4C    basis set group =>   1
Atom   5H    basis set group =>   2
Atom   6H    basis set group =>   2
Atom   7H    basis set group =>   2
Atom   8H    basis set group =>   2
Atom   9H    basis set group =>   2
Atom  10H    basis set group =>   2
Atom  11H    basis set group =>   2
Atom  12H    basis set group =>   2
Atom  13O    basis set group =>   3
Atom  14H    basis set group =>   2
---------------------------------
AUXILIARY/J BASIS SET INFORMATION
---------------------------------
There are 3 groups of distinct atoms

 Group   1 Type C   : 12s5p4d2f1g contracted to 6s4p3d1f1g pattern {711111/2111/211/2/1}
 Group   2 Type H   : 5s2p1d contracted to 3s1p1d pattern {311/2/1}
 Group   3 Type O   : 12s5p4d2f1g contracted to 6s4p3d1f1g pattern {711111/2111/211/2/1}

Atom   0C    basis set group =>   1
Atom   1C    basis set group =>   1
Atom   2C    basis set group =>   1
Atom   3C    basis set group =>   1
Atom   4C    basis set group =>   1
Atom   5H    basis set group =>   2
Atom   6H    basis set group =>   2
Atom   7H    basis set group =>   2
Atom   8H    basis set group =>   2
Atom   9H    basis set group =>   2
Atom  10H    basis set group =>   2
Atom  11H    basis set group =>   2
Atom  12H    basis set group =>   2
Atom  13O    basis set group =>   3
Atom  14H    basis set group =>   2
---------------------------------
AUXILIARY/C BASIS SET INFORMATION
---------------------------------
There are 3 groups of distinct atoms

 Group   1 Type C   : 8s6p5d3f1g contracted to 8s6p4d3f1g pattern {11111111/111111/2111/111/1}
 Group   2 Type H   : 4s3p2d1f contracted to 4s3p2d1f pattern {1111/111/11/1}
 Group   3 Type O   : 8s6p5d3f1g contracted to 8s6p4d3f1g pattern {11111111/111111/2111/111/1}

Atom   0C    basis set group =>   1
Atom   1C    basis set group =>   1
Atom   2C    basis set group =>   1
Atom   3C    basis set group =>   1
Atom   4C    basis set group =>   1
Atom   5H    basis set group =>   2
Atom   6H    basis set group =>   2
Atom   7H    basis set group =>   2
Atom   8H    basis set group =>   2
Atom   9H    basis set group =>   2
Atom  10H    basis set group =>   2
Atom  11H    basis set group =>   2
Atom  12H    basis set group =>   2
Atom  13O    basis set group =>   3
Atom  14H    basis set group =>   2


           ************************************************************
           *        Program running with 8 parallel MPI-processes     *
           *              working on a common directory               *
           ************************************************************
------------------------------------------------------------------------------
                             ORCA STARTUP CALCULATIONS
                           -- RI-GTO INTEGRALS CHOSEN --
------------------------------------------------------------------------------
------------------------------------------------------------------------------
                   ___                                                        
                  /   \      - P O W E R E D   B Y -                         
                 /     \                                                     
                 |  |  |   _    _      __       _____    __    __             
                 |  |  |  | |  | |    /  \     |  _  \  |  |  /  |          
                  \  \/   | |  | |   /    \    | | | |  |  | /  /          
                 / \  \   | |__| |  /  /\  \   | |_| |  |  |/  /          
                |  |  |   |  __  | /  /__\  \  |    /   |      \           
                |  |  |   | |  | | |   __   |  |    \   |  |\   \          
                \     /   | |  | | |  |  |  |  | |\  \  |  | \   \       
                 \___/    |_|  |_| |__|  |__|  |_| \__\ |__|  \__/        
                                                                              
                      - O R C A' S   B I G   F R I E N D -                    
                                      &                                       
                       - I N T E G R A L  F E E D E R -                       
                                                                              
 v1 FN, 2020, v2 2021, v3 2022-2024                                           
------------------------------------------------------------------------------


----------------------
SHARK INTEGRAL PACKAGE
----------------------

Number of atoms                             ...     15
Number of basis functions                   ...    312
Number of shells                            ...    120
Maximum angular momentum                    ...      3
Integral batch strategy                     ... SHARK/LIBINT Hybrid
RI-J (if used) integral strategy            ... SPLIT-RIJ (Revised 2003 algorithm where possible)
Printlevel                                  ...      1
Contraction scheme used                     ... SEGMENTED contraction
Prescreening option                         ... SCHWARTZ
   Thresh                                   ... 2.500e-11
   Tcut                                     ... 2.500e-12
   Tpresel                                  ... 2.500e-12 
Coulomb Range Separation                    ... NOT USED
Exchange Range Separation                   ... NOT USED
Multipole approximations                    ... NOT USED
Finite Nucleus Model                        ... NOT USED
CABS basis                                  ... NOT available
Auxiliary Coulomb fitting basis             ... AVAILABLE
   # of basis functions in Aux-J            ...    393
   # of shells in Aux-J                     ...    135
   Maximum angular momentum in Aux-J        ...      4
Auxiliary J/K fitting basis                 ... NOT available
Auxiliary Correlation fitting basis         ... AVAILABLE
   # of basis functions in Aux-C            ...    726
   # of shells in Aux-C                     ...    222
   Maximum angular momentum in Aux-C        ...      4
Auxiliary 'external' fitting basis          ... NOT available

Checking pre-screening integrals            ... done (  0.0 sec) Dimension = 120
   => SHARK Basis and OBASIS are compatible. Storing Pre-screening
Shell pair information
Shell pair cut-off parameter TPreSel        ...   2.5e-12
Total number of shell pairs                 ...      7260
Shell pairs after pre-screening             ...      6888
Total number of primitive shell pairs       ...     18687
Primitive shell pairs kept                  ...     14363
          la=0 lb=0:   1537 shell pairs
          la=1 lb=0:   1954 shell pairs
          la=1 lb=1:    648 shell pairs
          la=2 lb=0:   1114 shell pairs
          la=2 lb=1:    721 shell pairs
          la=2 lb=2:    225 shell pairs
          la=3 lb=0:    332 shell pairs
          la=3 lb=1:    212 shell pairs
          la=3 lb=2:    124 shell pairs
          la=3 lb=3:     21 shell pairs

Checking whether 4 symmetric matrices of dimension 312 fit in memory
:Max Core in MB      =  10000.00
 MB in use           =     11.92
 MB left             =   9988.08
 MB needed           =      1.49
 Data fit in memory  = YES
Calculating RI/J V-Matrix + Cholesky decomp.... done (  0.0 sec)
Calculating RI/C V-Matrix + Cholesky decomp.... done (  0.0 sec)
Calculating Nuclear repulsion               ... done (  0.0 sec) ENN=    239.116594078084 Eh

Diagonalization of the overlap matrix:
Smallest eigenvalue                        ... 6.404e-05
Time for diagonalization                   ...    0.009 sec
Threshold for overlap eigenvalues          ... 1.000e-07
Number of eigenvalues below threshold      ... 0
Time for construction of square roots      ...    0.004 sec
Total time needed                          ...    0.015 sec

-------------------
DFT GRID GENERATION
-------------------

General Integration Accuracy     IntAcc      ... 4.388
Radial Grid Type                 RadialGrid  ... OptM3 with GC (2021)
Angular Grid (max. ang.)         AngularGrid ... 4 (Lebedev-302)
Angular grid pruning method      GridPruning ... 4 (adaptive)
Weight generation scheme         WeightScheme... mBecke (2022)
Basis function cutoff            BFCut       ... 1.0000e-11
Integration weight cutoff        WCut        ... 1.0000e-14
Partially contracted basis set               ... off
Rotationally invariant grid construction     ... off
Angular grids for H and He will be reduced by one unit

Total number of grid points                  ...    65032
Total number of batches                      ...     1024
Average number of points per batch           ...       63
Average number of grid points per atom       ...     4335

--------------------
COSX GRID GENERATION
--------------------

GRIDX 1
-------
General Integration Accuracy     IntAcc      ... 3.816
Radial Grid Type                 RadialGrid  ... OptM3 with GC (2021)
Angular Grid (max. ang.)         AngularGrid ... 1 (Lebedev-50)
Angular grid pruning method      GridPruning ... 4 (adaptive)
Weight generation scheme         WeightScheme... mBecke (2022)
Basis function cutoff            BFCut       ... 1.0000e-11
Integration weight cutoff        WCut        ... 1.0000e-14
Partially contracted basis set               ... on
Rotationally invariant grid construction     ... off
Angular grids for H and He will be reduced by one unit

Total number of grid points                  ...     8356
Total number of batches                      ...       76
Average number of points per batch           ...      109
Average number of grid points per atom       ...      557
UseSFitting                                  ... on

GRIDX 2
-------
General Integration Accuracy     IntAcc      ... 4.020
Radial Grid Type                 RadialGrid  ... OptM3 with GC (2021)
Angular Grid (max. ang.)         AngularGrid ... 2 (Lebedev-110)
Angular grid pruning method      GridPruning ... 4 (adaptive)
Weight generation scheme         WeightScheme... mBecke (2022)
Basis function cutoff            BFCut       ... 1.0000e-11
Integration weight cutoff        WCut        ... 1.0000e-14
Partially contracted basis set               ... on
Rotationally invariant grid construction     ... off
Angular grids for H and He will be reduced by one unit

Total number of grid points                  ...    17651
Total number of batches                      ...      147
Average number of points per batch           ...      120
Average number of grid points per atom       ...     1177
UseSFitting                                  ... on

GRIDX 3
-------
General Integration Accuracy     IntAcc      ... 4.338
Radial Grid Type                 RadialGrid  ... OptM3 with GC (2021)
Angular Grid (max. ang.)         AngularGrid ... 3 (Lebedev-194)
Angular grid pruning method      GridPruning ... 4 (adaptive)
Weight generation scheme         WeightScheme... mBecke (2022)
Basis function cutoff            BFCut       ... 1.0000e-11
Integration weight cutoff        WCut        ... 1.0000e-14
Partially contracted basis set               ... on
Rotationally invariant grid construction     ... off
Angular grids for H and He will be reduced by one unit

Total number of grid points                  ...    38617
Total number of batches                      ...      311
Average number of points per batch           ...      124
Average number of grid points per atom       ...     2574
UseSFitting                                  ... on
Grids setup in   0.5 sec
Initializing property integral containers    ... done (  0.0 sec)

SHARK setup successfully completed in   0.7 seconds

Maximum memory used throughout the entire STARTUP-calculation: 25.0 MB


           ************************************************************
           *        Program running with 8 parallel MPI-processes     *
           *              working on a common directory               *
           ************************************************************
-------------------------------------------------------------------------------
                                 ORCA GUESS
                   Start orbitals & Density for SCF / CASSCF
-------------------------------------------------------------------------------

------------
SCF SETTINGS
------------
Hamiltonian:
 Density Functional     Method          .... DFT(GTOs)
 Exchange Functional    Exchange        .... PBE
   PBE kappa parameter   XKappa         ....  0.804000
   PBE mue parameter    XMuePBE         ....  0.219520
 Correlation Functional Correlation     .... P86
 LDA part of GGA corr.  LDAOpt          .... VWN-5
 Gradients option       PostSCFGGA      .... off
 Hybrid DFT is turned on
   Fraction HF Exchange ScalHFX         ....  0.690000
   Scaling of DF-GGA-X  ScalDFX         ....  0.310000
   Scaling of DF-GGA-C  ScalDFC         ....  0.422400
   Scaling of DF-LDA-C  ScalLDAC        ....  0.422400
   Perturbative correction              ....  1.000000
 RI-approximation to the Coulomb term is turned on
   Number of AuxJ basis functions       .... 393
   RIJ-COSX (HFX calculated with COS-X)).... on


General Settings:
 Integral files         IntName         .... opt
 Hartree-Fock type      HFTyp           .... UHF
 Total Charge           Charge          ....    0
 Multiplicity           Mult            ....    2
 Number of Electrons    NEL             ....   47
 Basis Dimension        Dim             ....  312
 Nuclear Repulsion      ENuc            ....    239.1165940781 Eh

Convergence Acceleration:
 AO-DIIS                CNVDIIS         .... on
   Start iteration      DIISMaxIt       ....    12
   Startup error        DIISStart       ....  0.200000
   # of expansion vecs  DIISMaxEq       ....     5
   Bias factor          DIISBfac        ....   1.050
   Max. coefficient     DIISMaxC        ....  10.000
 MO-DIIS                CNVKDIIS        .... off
 Trust-Rad. Augm. Hess. CNVTRAH         .... auto
   Auto Start mean grad. ratio tolernc. ....  1.125000
   Auto Start start iteration           ....    50
   Auto Start num. interpolation iter.  ....    10
   Max. Number of Micro iterations      ....    24
   Max. Number of Macro iterations      .... Maxiter - #DIIS iter
   Number of Davidson start vectors     ....     2
   Converg. threshold    (grad. norm)   ....   1.000e-05
   Grad. Scal. Fac. for Micro threshold ....   0.100
   Minimum threshold for Micro iter.    ....   1.000e-02
   NR start threshold (gradient norm)   ....   1.000e-04
   Initial trust radius                 ....   0.400
   Minimum AH scaling param. (alpha)    ....   1.000
   Maximum AH scaling param. (alpha)    .... 1000.000
   Quad. conv. algorithm                .... NR
   White noise on init. David. guess    .... on
   Maximum white noise                  ....   0.010
   Pseudo random numbers                .... off
   Inactive MOs                         .... canonical
   Orbital update algorithm             .... Taylor
   Preconditioner                       .... Diag
   Full preconditioner red. dimension   ....   250
 SOSCF                 CNVSOSCF           .... on
   Start iteration     SOSCFMaxIt         ....   150
   Startup grad/error  SOSCFStart         ....  0.003300
   Hessian update      SOSCFHessUp        .... L-BFGS
   Autom. constraints  SOSCFAutoConstrain .... off
 Level Shifting         CNVShift        .... on
   Level shift para.    LevelShift      ....    0.2500
   Turn off err/grad.   ShiftErr        ....    0.0010
 Zerner damping         CNVZerner       .... off
 Static damping         CNVDamp         .... on
   Fraction old density DampFac         ....    0.7000
   Max. Damping (<1)    DampMax         ....    0.9800
   Min. Damping (>=0)   DampMin         ....    0.0000
   Turn off err/grad.   DampErr         ....    0.1000

SCF Procedure:
 Maximum # iterations   MaxIter         ....   125
 SCF integral mode      SCFMode         .... Direct
   Integral package                     .... SHARK and LIBINT hybrid scheme
 Reset frequency        DirectResetFreq ....    20
 Integral Threshold     Thresh          ....  2.500e-11 Eh
 Primitive CutOff       TCut            ....  2.500e-12 Eh

Convergence Tolerance:
 Convergence Check Mode ConvCheckMode   .... Total+1el-Energy
 Convergence forced     ConvForced      .... 0
 Energy Change          TolE            ....  1.000e-08 Eh
 1-El. energy change                    ....  1.000e-05 Eh
 Orbital Gradient       TolG            ....  1.000e-05
 Orbital Rotation angle TolX            ....  1.000e-05
 DIIS Error             TolErr          ....  5.000e-07

------------------------------
INITIAL GUESS: MODEL POTENTIAL
------------------------------
Loading Hartree-Fock densities                     ... done
Calculating cut-offs                               ... done
Initializing the effective Hamiltonian             ... done
Setting up the integral package (SHARK)            ... done
Starting the Coulomb interaction                   ... done (   0.0 sec)
Making the grid                                    ... done (   0.1 sec)
Mapping shells                                     ... done
Starting the XC term evaluation                    ... done (   0.0 sec)
  promolecular density results
     # of electrons  =     46.992489838
     EX              =    -36.314250381
     EC              =      0.016596779
     EX+EC           =    -36.297653602
Transforming the Hamiltonian                       ... done (   0.0 sec)
Diagonalizing the Hamiltonian                      ... done (   0.0 sec)
Back transforming the eigenvectors                 ... done (   0.0 sec)
Now organizing SCF variables                       ... done
                      ------------------
                      INITIAL GUESS DONE (   0.2 sec)
                      ------------------
             **** ENERGY FILE WAS UPDATED (opt.en.tmp) ****
Finished Guess after   0.7 sec
Maximum memory used throughout the entire GUESS-calculation: 17.9 MB


           ************************************************************
           *        Program running with 8 parallel MPI-processes     *
           *              working on a common directory               *
           ************************************************************

-------------------------------------------------------------------------------------------
                                      ORCA LEAN-SCF
                              memory conserving SCF solver
-------------------------------------------------------------------------------------------

----------------------------------------D-I-I-S--------------------------------------------
Iteration    Energy (Eh)           Delta-E    RMSDP     MaxDP     DIISErr   Damp  Time(sec)
-------------------------------------------------------------------------------------------
               ***  Starting incremental Fock matrix formation  ***
    1    -269.8570615526550682     0.00e+00  1.88e-03  3.29e-02  1.60e-01  0.700   1.5
    2    -269.9475761812013843    -9.05e-02  1.44e-03  2.39e-02  8.03e-02  0.700   1.0
                               ***Turning on AO-DIIS***
    3    -269.9933104387655476    -4.57e-02  6.54e-04  9.36e-03  4.23e-02  0.700   0.9
    4    -270.0219396903035545    -2.86e-02  1.78e-03  3.14e-02  3.60e-02  0.000   0.9
    5    -270.0911046460865919    -6.92e-02  5.56e-04  9.44e-03  2.08e-02  0.000   0.9
    6    -270.0943537879736027    -3.25e-03  5.65e-04  8.24e-03  1.38e-02  0.000   0.9
    7    -270.0969875215434399    -2.63e-03  5.09e-04  7.74e-03  1.27e-02  0.000   0.9
    8    -270.0989979787912034    -2.01e-03  4.57e-04  5.92e-03  8.29e-03  0.000   0.9
    9    -270.1000561295685429    -1.06e-03  2.48e-04  4.67e-03  5.55e-03  0.000   0.9
                              *** Initializing SOSCF ***
---------------------------------------S-O-S-C-F--------------------------------------
Iteration    Energy (Eh)           Delta-E    RMSDP     MaxDP     MaxGrad    Time(sec)
--------------------------------------------------------------------------------------
   10    -270.1004073562144754    -3.51e-04  1.91e-04  3.67e-03  2.93e-03     0.9
               *** Restarting incremental Fock matrix formation ***
   11    -270.1004951672599077    -8.78e-05  9.90e-05  2.48e-03  2.48e-03     1.5
   12    -270.1005199964390613    -2.48e-05  9.55e-05  2.14e-03  4.84e-04     1.3
   13    -270.1005346313934865    -1.46e-05  4.08e-05  5.47e-04  2.07e-04     1.3
   14    -270.1005372897164420    -2.66e-06  2.02e-05  3.49e-04  9.07e-05     1.2
   15    -270.1005377505911724    -4.61e-07  4.81e-06  9.66e-05  3.69e-05     1.2
   16    -270.1005378158682788    -6.53e-08  3.02e-06  4.09e-05  3.19e-05     1.1
   17    -270.1005378442255278    -2.84e-08  2.56e-06  3.65e-05  2.92e-05     1.1
   18    -270.1005378620271244    -1.78e-08  1.25e-06  2.85e-05  2.10e-05     1.1
   19    -270.1005378718162433    -9.79e-09  1.55e-06  3.19e-05  1.45e-05     1.0
                 **** Energy Check signals convergence ****

               *****************************************************
               *                     SUCCESS                       *
               *           SCF CONVERGED AFTER  19 CYCLES          *
               *****************************************************

Recomputing exchange energy using gridx3       ... done (    2.056 sec)
Old exchange energy                            :    -25.794367857 Eh
New exchange energy                            :    -25.794404986 Eh
Exchange energy change after final integration :     -0.000037129 Eh
Total energy after final integration           :   -270.100575008 Eh
             **** ENERGY FILE WAS UPDATED (opt.en.tmp) ****

----------------
TOTAL SCF ENERGY
----------------

Total Energy       :       -270.10057500768943 Eh           -7349.81030 eV

Components:
Nuclear Repulsion  :        239.11659407808440 Eh            6506.69332 eV
Electronic Energy  :       -509.21713195662693 Eh          -13856.50261 eV
One Electron Energy:       -839.93813550844766 Eh          -22855.87864 eV
Two Electron Energy:        330.72100355182073 Eh            8999.37603 eV

Virial components:
Potential Energy   :       -539.58994461396787 Eh          -14682.98886 eV
Kinetic Energy     :        269.48936960627839 Eh            7333.17856 eV
Virial Ratio       :          2.00226801302888

DFT components:
N(Alpha)           :       24.000009197728 electrons
N(Beta)            :       23.000005977550 electrons
N(Total)           :       47.000015175278 electrons
E(X)               :      -11.529886295918 Eh       
E(C)               :       -0.712528439692 Eh       
E(XC)              :      -12.242414735610 Eh       

---------------
SCF CONVERGENCE
---------------

  Last Energy change         ...    9.7891e-09  Tolerance :   1.0000e-08
  Last MAX-Density change    ...    3.1867e-05  Tolerance :   1.0000e-07
  Last RMS-Density change    ...    1.5529e-06  Tolerance :   5.0000e-09
  Last DIIS Error            ...    2.9256e-03  Tolerance :   5.0000e-07
  Last Orbital Gradient      ...    1.4483e-05  Tolerance :   1.0000e-05
  Last Orbital Rotation      ...    1.7022e-04  Tolerance :   1.0000e-05


----------------------
UHF SPIN CONTAMINATION
----------------------

Warning: in a DFT calculation there is little theoretical justification to 
         calculate <S**2> as in Hartree-Fock theory. We will do it anyways
         but you should keep in mind that the values have only limited relevance

Expectation value of <S**2>     :     0.825839
Ideal value S*(S+1) for S=0.5   :     0.750000
Deviation                       :     0.075839

----------------
ORBITAL ENERGIES
----------------
                 SPIN UP ORBITALS
  NO   OCC          E(Eh)            E(eV) 
   0   1.0000     -20.025988      -544.9348 
   1   1.0000     -10.824843      -294.5589 
   2   1.0000     -10.817116      -294.3487 
   3   1.0000     -10.815894      -294.3154 
   4   1.0000     -10.813237      -294.2431 
   5   1.0000     -10.812597      -294.2257 
   6   1.0000      -1.204775       -32.7836 
   7   1.0000      -1.032494       -28.0956 
   8   1.0000      -0.880201       -23.9515 
   9   1.0000      -0.869258       -23.6537 
  10   1.0000      -0.715221       -19.4622 
  11   1.0000      -0.665110       -18.0986 
  12   1.0000      -0.620610       -16.8877 
  13   1.0000      -0.585905       -15.9433 
  14   1.0000      -0.559795       -15.2328 
  15   1.0000      -0.521405       -14.1882 
  16   1.0000      -0.502360       -13.6699 
  17   1.0000      -0.483059       -13.1447 
  18   1.0000      -0.447276       -12.1710 
  19   1.0000      -0.444496       -12.0953 
  20   1.0000      -0.436483       -11.8773 
  21   1.0000      -0.430604       -11.7173 
  22   1.0000      -0.424842       -11.5605 
  23   1.0000      -0.303517        -8.2591 
  24   0.0000       0.085404         2.3240 
  25   0.0000       0.112069         3.0495 
  26   0.0000       0.125451         3.4137 
  27   0.0000       0.138187         3.7603 
  28   0.0000       0.145231         3.9519 
  29   0.0000       0.161375         4.3912 
  30   0.0000       0.165928         4.5151 
  31   0.0000       0.174994         4.7618 
  32   0.0000       0.189353         5.1525 
  33   0.0000       0.208826         5.6825 
  34   0.0000       0.240804         6.5526 

                 SPIN DOWN ORBITALS
  NO   OCC          E(Eh)            E(eV) 
   0   1.0000     -19.994749      -544.0848 
   1   1.0000     -10.829126      -294.6755 
   2   1.0000     -10.816872      -294.3421 
   3   1.0000     -10.813170      -294.2413 
   4   1.0000     -10.812208      -294.2151 
   5   1.0000     -10.807576      -294.0891 
   6   1.0000      -1.105421       -30.0800 
   7   1.0000      -1.024185       -27.8695 
   8   1.0000      -0.875069       -23.8118 
   9   1.0000      -0.866012       -23.5654 
  10   1.0000      -0.713276       -19.4092 
  11   1.0000      -0.657929       -17.9032 
  12   1.0000      -0.616477       -16.7752 
  13   1.0000      -0.580407       -15.7937 
  14   1.0000      -0.533369       -14.5137 
  15   1.0000      -0.499536       -13.5931 
  16   1.0000      -0.480451       -13.0737 
  17   1.0000      -0.444676       -12.1002 
  18   1.0000      -0.442344       -12.0368 
  19   1.0000      -0.437555       -11.9065 
  20   1.0000      -0.430252       -11.7077 
  21   1.0000      -0.397122       -10.8062 
  22   1.0000      -0.322597        -8.7783 
  23   0.0000       0.025579         0.6961 
  24   0.0000       0.088609         2.4112 
  25   0.0000       0.124829         3.3968 
  26   0.0000       0.127390         3.4665 
  27   0.0000       0.139010         3.7827 
  28   0.0000       0.145792         3.9672 
  29   0.0000       0.163499         4.4490 
  30   0.0000       0.168827         4.5940 
  31   0.0000       0.175616         4.7788 
  32   0.0000       0.189682         5.1615 
  33   0.0000       0.213445         5.8081 
*Only the first 10 virtual orbitals were printed.

                    ********************************
                    * MULLIKEN POPULATION ANALYSIS *
                    ********************************

--------------------------------------------
MULLIKEN ATOMIC CHARGES AND SPIN POPULATIONS
--------------------------------------------
   0 C :   -0.107802    0.028396
   1 C :   -0.162344   -0.002738
   2 C :   -0.080797   -0.051876
   3 C :   -0.224244    0.493132
   4 C :   -0.019633   -0.281082
   5 H :    0.072449   -0.013626
   6 H :    0.088638   -0.006658
   7 H :    0.079947   -0.000509
   8 H :    0.066522   -0.000293
   9 H :    0.073395    0.014690
  10 H :    0.071162    0.025760
  11 H :    0.112816   -0.034258
  12 H :    0.145199    0.030809
  13 O :   -0.337804    0.824373
  14 H :    0.222494   -0.026120
Sum of atomic charges         :   -0.0000000
Sum of atomic spin populations:    1.0000000

-----------------------------------------------------
MULLIKEN REDUCED ORBITAL CHARGES AND SPIN POPULATIONS
-----------------------------------------------------
CHARGE
  0 C s       :     3.111657  s :     3.111657
      pz      :     1.038899  p :     2.883762
      px      :     0.969338
      py      :     0.875525
      dz2     :     0.017544  d :     0.106392
      dxz     :     0.028888
      dyz     :     0.014091
      dx2y2   :     0.024345
      dxy     :     0.021525
      f0      :     0.000650  f :     0.005991
      f+1     :     0.000793
      f-1     :     0.000566
      f+2     :     0.000446
      f-2     :     0.000772
      f+3     :     0.001428
      f-3     :     0.001336

  1 C s       :     3.146173  s :     3.146173
      pz      :     1.037862  p :     2.906605
      px      :     0.879959
      py      :     0.988784
      dz2     :     0.024014  d :     0.103532
      dxz     :     0.015218
      dyz     :     0.016630
      dx2y2   :     0.027676
      dxy     :     0.019994
      f0      :     0.000932  f :     0.006033
      f+1     :     0.000574
      f-1     :     0.000414
      f+2     :     0.000565
      f-2     :     0.000785
      f+3     :     0.001361
      f-3     :     0.001401

  2 C s       :     3.091346  s :     3.091346
      pz      :     1.039604  p :     2.876057
      px      :     0.957468
      py      :     0.878984
      dz2     :     0.016662  d :     0.107347
      dxz     :     0.029384
      dyz     :     0.015729
      dx2y2   :     0.024771
      dxy     :     0.020801
      f0      :     0.000697  f :     0.006047
      f+1     :     0.000793
      f-1     :     0.000549
      f+2     :     0.000492
      f-2     :     0.000802
      f+3     :     0.001416
      f-3     :     0.001300

  3 C s       :     3.217209  s :     3.217209
      pz      :     0.961154  p :     2.891273
      px      :     0.962610
      py      :     0.967509
      dz2     :     0.005495  d :     0.108105
      dxz     :     0.020343
      dyz     :     0.008112
      dx2y2   :     0.029647
      dxy     :     0.044508
      f0      :     0.001073  f :     0.007657
      f+1     :     0.000647
      f-1     :     0.000858
      f+2     :     0.000953
      f-2     :     0.000292
      f+3     :     0.001444
      f-3     :     0.002391

  4 C s       :     3.082128  s :     3.082128
      pz      :     0.832017  p :     2.798467
      px      :     0.975838
      py      :     0.990612
      dz2     :     0.014291  d :     0.130714
      dxz     :     0.025996
      dyz     :     0.012132
      dx2y2   :     0.032366
      dxy     :     0.045929
      f0      :     0.001406  f :     0.008324
      f+1     :     0.000643
      f-1     :     0.000971
      f+2     :     0.001110
      f-2     :     0.000306
      f+3     :     0.001512
      f-3     :     0.002375

  5 H s       :     0.886661  s :     0.886661
      pz      :     0.018233  p :     0.038811
      px      :     0.011479
      py      :     0.009098
      dz2     :     0.000601  d :     0.002080
      dxz     :     0.000613
      dyz     :     0.000567
      dx2y2   :     0.000143
      dxy     :     0.000156

  6 H s       :     0.870638  s :     0.870638
      pz      :     0.013486  p :     0.038635
      px      :     0.016317
      py      :     0.008832
      dz2     :     0.000569  d :     0.002089
      dxz     :     0.000411
      dyz     :     0.000297
      dx2y2   :     0.000341
      dxy     :     0.000470

  7 H s       :     0.879044  s :     0.879044
      pz      :     0.011065  p :     0.038937
      px      :     0.009595
      py      :     0.018278
      dz2     :     0.000421  d :     0.002071
      dxz     :     0.000136
      dyz     :     0.000466
      dx2y2   :     0.000348
      dxy     :     0.000700

  8 H s       :     0.892017  s :     0.892017
      pz      :     0.019827  p :     0.039341
      px      :     0.009151
      py      :     0.010364
      dz2     :     0.000535  d :     0.002120
      dxz     :     0.000744
      dyz     :     0.000749
      dx2y2   :     0.000033
      dxy     :     0.000058

  9 H s       :     0.885501  s :     0.885501
      pz      :     0.012892  p :     0.039030
      px      :     0.016849
      py      :     0.009290
      dz2     :     0.000562  d :     0.002074
      dxz     :     0.000398
      dyz     :     0.000278
      dx2y2   :     0.000342
      dxy     :     0.000492

 10 H s       :     0.888075  s :     0.888075
      pz      :     0.018017  p :     0.038678
      px      :     0.011294
      py      :     0.009367
      dz2     :     0.000598  d :     0.002085
      dxz     :     0.000611
      dyz     :     0.000580
      dx2y2   :     0.000138
      dxy     :     0.000157

 11 H s       :     0.847627  s :     0.847627
      pz      :     0.010412  p :     0.037578
      px      :     0.010534
      py      :     0.016633
      dz2     :     0.000136  d :     0.001978
      dxz     :     0.000269
      dyz     :     0.000365
      dx2y2   :     0.000769
      dxy     :     0.000440

 12 H s       :     0.815879  s :     0.815879
      pz      :     0.008642  p :     0.036931
      px      :     0.010730
      py      :     0.017559
      dz2     :     0.000218  d :     0.001991
      dxz     :     0.000232
      dyz     :     0.000299
      dx2y2   :     0.000787
      dxy     :     0.000456

 13 O s       :     3.877601  s :     3.877601
      pz      :     1.151187  p :     4.446817
      px      :     1.570752
      py      :     1.724878
      dz2     :     0.002680  d :     0.012982
      dxz     :     0.002410
      dyz     :     0.002031
      dx2y2   :     0.001360
      dxy     :     0.004501
      f0      :     0.000027  f :     0.000404
      f+1     :     0.000008
      f-1     :     0.000020
      f+2     :     0.000019
      f-2     :     0.000098
      f+3     :     0.000079
      f-3     :     0.000153

 14 H s       :     0.686468  s :     0.686468
      pz      :     0.019318  p :     0.082697
      px      :     0.029980
      py      :     0.033398
      dz2     :     0.000955  d :     0.008342
      dxz     :     0.001398
      dyz     :     0.000999
      dx2y2   :     0.002848
      dxy     :     0.002142


SPIN
  0 C s       :     0.007104  s :     0.007104
      pz      :     0.010011  p :     0.026077
      px      :     0.005414
      py      :     0.010652
      dz2     :    -0.000066  d :    -0.004546
      dxz     :    -0.001210
      dyz     :    -0.003053
      dx2y2   :    -0.000089
      dxy     :    -0.000128
      f0      :    -0.000062  f :    -0.000240
      f+1     :    -0.000009
      f-1     :     0.000003
      f+2     :    -0.000109
      f-2     :    -0.000034
      f+3     :    -0.000008
      f-3     :    -0.000021

  1 C s       :    -0.003122  s :    -0.003122
      pz      :     0.001440  p :     0.000371
      px      :     0.000786
      py      :    -0.001854
      dz2     :     0.000019  d :     0.000027
      dxz     :    -0.000027
      dyz     :    -0.000034
      dx2y2   :     0.000091
      dxy     :    -0.000021
      f0      :    -0.000001  f :    -0.000014
      f+1     :     0.000000
      f-1     :    -0.000001
      f+2     :    -0.000003
      f-2     :    -0.000001
      f+3     :    -0.000004
      f-3     :    -0.000004

  2 C s       :    -0.008752  s :    -0.008752
      pz      :    -0.022131  p :    -0.053000
      px      :    -0.007668
      py      :    -0.023201
      dz2     :     0.000272  d :     0.009366
      dxz     :     0.003135
      dyz     :     0.005985
      dx2y2   :    -0.000028
      dxy     :     0.000004
      f0      :     0.000181  f :     0.000510
      f+1     :     0.000018
      f-1     :     0.000004
      f+2     :     0.000177
      f-2     :     0.000093
      f+3     :     0.000008
      f-3     :     0.000028

  3 C s       :     0.041910  s :     0.041910
      pz      :     0.385658  p :     0.454848
      px      :     0.035720
      py      :     0.033471
      dz2     :    -0.001951  d :    -0.002649
      dxz     :    -0.003809
      dyz     :     0.000282
      dx2y2   :     0.001121
      dxy     :     0.001709
      f0      :    -0.000289  f :    -0.000978
      f+1     :    -0.000232
      f-1     :    -0.000286
      f+2     :    -0.000158
      f-2     :     0.000026
      f+3     :    -0.000026
      f-3     :    -0.000012

  4 C s       :    -0.027571  s :    -0.027571
      pz      :    -0.209550  p :    -0.265936
      px      :    -0.032806
      py      :    -0.023580
      dz2     :     0.004269  d :     0.010741
      dxz     :     0.007360
      dyz     :     0.000009
      dx2y2   :     0.000391
      dxy     :    -0.001288
      f0      :     0.000755  f :     0.001683
      f+1     :     0.000124
      f-1     :     0.000234
      f+2     :     0.000450
      f-2     :    -0.000004
      f+3     :     0.000079
      f-3     :     0.000045

  5 H s       :    -0.013757  s :    -0.013757
      pz      :    -0.000050  p :     0.000140
      px      :     0.000058
      py      :     0.000132
      dz2     :    -0.000008  d :    -0.000009
      dxz     :    -0.000005
      dyz     :     0.000002
      dx2y2   :    -0.000001
      dxy     :     0.000002

  6 H s       :    -0.006640  s :    -0.006640
      pz      :     0.000004  p :    -0.000018
      px      :    -0.000004
      py      :    -0.000019
      dz2     :     0.000001  d :     0.000001
      dxz     :    -0.000002
      dyz     :     0.000001
      dx2y2   :    -0.000000
      dxy     :     0.000000

  7 H s       :    -0.000588  s :    -0.000588
      pz      :     0.000013  p :     0.000076
      px      :     0.000006
      py      :     0.000058
      dz2     :     0.000001  d :     0.000003
      dxz     :     0.000000
      dyz     :     0.000000
      dx2y2   :     0.000001
      dxy     :     0.000001

  8 H s       :    -0.000331  s :    -0.000331
      pz      :     0.000024  p :     0.000040
      px      :     0.000009
      py      :     0.000006
      dz2     :    -0.000001  d :    -0.000001
      dxz     :     0.000000
      dyz     :     0.000001
      dx2y2   :    -0.000001
      dxy     :    -0.000000

  9 H s       :     0.014791  s :     0.014791
      pz      :    -0.000066  p :    -0.000105
      px      :     0.000005
      py      :    -0.000043
      dz2     :    -0.000001  d :     0.000003
      dxz     :     0.000002
      dyz     :    -0.000003
      dx2y2   :     0.000006
      dxy     :    -0.000001

 10 H s       :     0.025219  s :     0.025219
      pz      :     0.000325  p :     0.000527
      px      :     0.000090
      py      :     0.000112
      dz2     :     0.000013  d :     0.000014
      dxz     :     0.000004
      dyz     :    -0.000005
      dx2y2   :    -0.000000
      dxy     :     0.000002

 11 H s       :    -0.038933  s :    -0.038933
      pz      :     0.004343  p :     0.004326
      px      :    -0.000078
      py      :     0.000062
      dz2     :    -0.000013  d :     0.000348
      dxz     :     0.000101
      dyz     :     0.000195
      dx2y2   :     0.000028
      dxy     :     0.000037

 12 H s       :     0.033300  s :     0.033300
      pz      :    -0.002940  p :    -0.002353
      px      :     0.000324
      py      :     0.000264
      dz2     :     0.000041  d :    -0.000139
      dxz     :    -0.000055
      dyz     :    -0.000116
      dx2y2   :    -0.000004
      dxy     :    -0.000004

 13 O s       :     0.009764  s :     0.009764
      pz      :     0.689871  p :     0.815037
      px      :     0.077167
      py      :     0.047999
      dz2     :    -0.000008  d :    -0.000296
      dxz     :    -0.000251
      dyz     :    -0.000317
      dx2y2   :     0.000107
      dxy     :     0.000172
      f0      :    -0.000083  f :    -0.000131
      f+1     :    -0.000009
      f-1     :     0.000009
      f+2     :    -0.000021
      f-2     :    -0.000076
      f+3     :     0.000017
      f-3     :     0.000032

 14 H s       :    -0.029706  s :    -0.029706
      pz      :     0.005713  p :     0.002547
      px      :    -0.001469
      py      :    -0.001697
      dz2     :     0.000170  d :     0.001039
      dxz     :     0.000489
      dyz     :     0.000255
      dx2y2   :    -0.000076
      dxy     :     0.000201



                     *******************************
                     * LOEWDIN POPULATION ANALYSIS *
                     *******************************

-------------------------------------------
LOEWDIN ATOMIC CHARGES AND SPIN POPULATIONS
-------------------------------------------
   0 C :   -0.012150   -0.010053
   1 C :    0.000107   -0.000392
   2 C :   -0.023135    0.019564
   3 C :    0.000260    0.287053
   4 C :   -0.001443   -0.096937
   5 H :    0.015809   -0.006424
   6 H :    0.018150   -0.002927
   7 H :    0.007055   -0.000176
   8 H :    0.010729   -0.000236
   9 H :    0.010486    0.006316
  10 H :    0.016869    0.013534
  11 H :    0.002834    0.017581
  12 H :    0.015739   -0.007056
  13 O :    0.113983    0.745700
  14 H :   -0.175292    0.034453

----------------------------------------------------
LOEWDIN REDUCED ORBITAL CHARGES AND SPIN POPULATIONS
----------------------------------------------------
CHARGE
  0 C s       :     2.690477  s :     2.690477
      pz      :     1.002986  p :     2.880256
      px      :     0.948870
      py      :     0.928401
      dz2     :     0.065616  d :     0.399339
      dxz     :     0.096265
      dyz     :     0.051611
      dx2y2   :     0.096226
      dxy     :     0.089621
      f0      :     0.004141  f :     0.042077
      f+1     :     0.004650
      f-1     :     0.005165
      f+2     :     0.004461
      f-2     :     0.005386
      f+3     :     0.009389
      f-3     :     0.008886

  1 C s       :     2.692695  s :     2.692695
      pz      :     1.000204  p :     2.873395
      px      :     0.916051
      py      :     0.957139
      dz2     :     0.091114  d :     0.392466
      dxz     :     0.054834
      dyz     :     0.057731
      dx2y2   :     0.101017
      dxy     :     0.087771
      f0      :     0.005981  f :     0.041337
      f+1     :     0.004659
      f-1     :     0.002393
      f+2     :     0.005692
      f-2     :     0.006238
      f+3     :     0.009153
      f-3     :     0.007222

  2 C s       :     2.690122  s :     2.690122
      pz      :     1.000629  p :     2.882772
      px      :     0.948040
      py      :     0.934104
      dz2     :     0.063628  d :     0.407679
      dxz     :     0.100040
      dyz     :     0.058347
      dx2y2   :     0.097061
      dxy     :     0.088603
      f0      :     0.004474  f :     0.042562
      f+1     :     0.004631
      f-1     :     0.005027
      f+2     :     0.004876
      f-2     :     0.005550
      f+3     :     0.009253
      f-3     :     0.008751

  3 C s       :     2.737224  s :     2.737224
      pz      :     0.827779  p :     2.826376
      px      :     1.038763
      py      :     0.959835
      dz2     :     0.028329  d :     0.392725
      dxz     :     0.055550
      dyz     :     0.034528
      dx2y2   :     0.113126
      dxy     :     0.161191
      f0      :     0.002668  f :     0.043415
      f+1     :     0.003689
      f-1     :     0.003000
      f+2     :     0.006625
      f-2     :     0.001903
      f+3     :     0.008546
      f-3     :     0.016984

  4 C s       :     2.737584  s :     2.737584
      pz      :     0.751300  p :     2.770598
      px      :     1.049551
      py      :     0.969747
      dz2     :     0.055979  d :     0.445395
      dxz     :     0.071641
      dyz     :     0.044859
      dx2y2   :     0.113506
      dxy     :     0.159410
      f0      :     0.005137  f :     0.047866
      f+1     :     0.003874
      f-1     :     0.003825
      f+2     :     0.007699
      f-2     :     0.001985
      f+3     :     0.008551
      f-3     :     0.016794

  5 H s       :     0.806932  s :     0.806932
      pz      :     0.065590  p :     0.148765
      px      :     0.042923
      py      :     0.040251
      dz2     :     0.009355  d :     0.028494
      dxz     :     0.008514
      dyz     :     0.007088
      dx2y2   :     0.001635
      dxy     :     0.001902

  6 H s       :     0.806160  s :     0.806160
      pz      :     0.053537  p :     0.146923
      px      :     0.055720
      py      :     0.037667
      dz2     :     0.007643  d :     0.028766
      dxz     :     0.007364
      dyz     :     0.003512
      dx2y2   :     0.004805
      dxy     :     0.005442

  7 H s       :     0.814870  s :     0.814870
      pz      :     0.046234  p :     0.149266
      px      :     0.039644
      py      :     0.063388
      dz2     :     0.006012  d :     0.028809
      dxz     :     0.001549
      dyz     :     0.007686
      dx2y2   :     0.006042
      dxy     :     0.007520

  8 H s       :     0.810684  s :     0.810684
      pz      :     0.070165  p :     0.149463
      px      :     0.038869
      py      :     0.040429
      dz2     :     0.009780  d :     0.029125
      dxz     :     0.008811
      dyz     :     0.009743
      dx2y2   :     0.000194
      dxy     :     0.000597

  9 H s       :     0.812676  s :     0.812676
      pz      :     0.052678  p :     0.148253
      px      :     0.056154
      py      :     0.039420
      dz2     :     0.007612  d :     0.028585
      dxz     :     0.007222
      dyz     :     0.003357
      dx2y2   :     0.004811
      dxy     :     0.005582

 10 H s       :     0.805777  s :     0.805777
      pz      :     0.065662  p :     0.148840
      px      :     0.042471
      py      :     0.040706
      dz2     :     0.009361  d :     0.028515
      dxz     :     0.008517
      dyz     :     0.007177
      dx2y2   :     0.001595
      dxy     :     0.001865

 11 H s       :     0.816191  s :     0.816191
      pz      :     0.043624  p :     0.153120
      px      :     0.045206
      py      :     0.064290
      dz2     :     0.002555  d :     0.027855
      dxz     :     0.003166
      dyz     :     0.005358
      dx2y2   :     0.008806
      dxy     :     0.007969

 12 H s       :     0.806533  s :     0.806533
      pz      :     0.038128  p :     0.149914
      px      :     0.046012
      py      :     0.065774
      dz2     :     0.003115  d :     0.027814
      dxz     :     0.002817
      dyz     :     0.004568
      dx2y2   :     0.009028
      dxy     :     0.008286

 13 O s       :     3.497880  s :     3.497880
      pz      :     1.111430  p :     4.362614
      px      :     1.577988
      py      :     1.673197
      dz2     :     0.005521  d :     0.023846
      dxz     :     0.004730
      dyz     :     0.003703
      dx2y2   :     0.000928
      dxy     :     0.008964
      f0      :     0.000252  f :     0.001676
      f+1     :     0.000196
      f-1     :     0.000172
      f+2     :     0.000137
      f-2     :     0.000329
      f+3     :     0.000215
      f-3     :     0.000375

 14 H s       :     0.714650  s :     0.714650
      pz      :     0.076143  p :     0.365268
      px      :     0.152216
      py      :     0.136910
      dz2     :     0.011492  d :     0.095373
      dxz     :     0.017182
      dyz     :     0.012406
      dx2y2   :     0.032274
      dxy     :     0.022018


SPIN
  0 C s       :     0.000742  s :     0.000742
      pz      :     0.001690  p :     0.007034
      px      :     0.001117
      py      :     0.004227
      dz2     :    -0.000875  d :    -0.016238
      dxz     :    -0.003260
      dyz     :    -0.010450
      dx2y2   :    -0.000705
      dxy     :    -0.000948
      f0      :    -0.000445  f :    -0.001590
      f+1     :    -0.000039
      f-1     :     0.000006
      f+2     :    -0.000603
      f-2     :    -0.000294
      f+3     :    -0.000107
      f-3     :    -0.000109

  1 C s       :    -0.000009  s :    -0.000009
      pz      :     0.000138  p :     0.000489
      px      :     0.000363
      py      :    -0.000012
      dz2     :    -0.000165  d :    -0.000794
      dxz     :    -0.000073
      dyz     :    -0.000223
      dx2y2   :    -0.000157
      dxy     :    -0.000175
      f0      :    -0.000005  f :    -0.000078
      f+1     :    -0.000003
      f-1     :    -0.000009
      f+2     :    -0.000006
      f-2     :    -0.000015
      f+3     :    -0.000040
      f-3     :    -0.000000

  2 C s       :    -0.002025  s :    -0.002025
      pz      :    -0.003368  p :    -0.014855
      px      :    -0.002559
      py      :    -0.008928
      dz2     :     0.001235  d :     0.033087
      dxz     :     0.009011
      dyz     :     0.019903
      dx2y2   :     0.001619
      dxy     :     0.001320
      f0      :     0.001070  f :     0.003356
      f+1     :     0.000080
      f-1     :     0.000068
      f+2     :     0.001132
      f-2     :     0.000663
      f+3     :     0.000210
      f-3     :     0.000135

  3 C s       :     0.012536  s :     0.012536
      pz      :     0.280759  p :     0.300346
      px      :     0.010499
      py      :     0.009088
      dz2     :    -0.001481  d :    -0.022514
      dxz     :    -0.017139
      dyz     :    -0.000221
      dx2y2   :    -0.001678
      dxy     :    -0.001995
      f0      :    -0.000784  f :    -0.003315
      f+1     :    -0.000173
      f-1     :    -0.000309
      f+2     :    -0.001521
      f-2     :     0.000001
      f+3     :    -0.000372
      f-3     :    -0.000158

  4 C s       :    -0.003981  s :    -0.003981
      pz      :    -0.135686  p :    -0.148817
      px      :    -0.008649
      py      :    -0.004482
      dz2     :     0.015398  d :     0.048513
      dxz     :     0.027019
      dyz     :     0.001359
      dx2y2   :     0.002826
      dxy     :     0.001911
      f0      :     0.002547  f :     0.007347
      f+1     :     0.000133
      f-1     :     0.000604
      f+2     :     0.003347
      f-2     :     0.000010
      f+3     :     0.000435
      f-3     :     0.000271

  5 H s       :    -0.006551  s :    -0.006551
      pz      :     0.000044  p :     0.000013
      px      :     0.000082
      py      :    -0.000113
      dz2     :     0.000028  d :     0.000115
      dxz     :     0.000022
      dyz     :     0.000057
      dx2y2   :     0.000000
      dxy     :     0.000007

  6 H s       :    -0.003502  s :    -0.003502
      pz      :     0.000005  p :     0.000460
      px      :     0.000195
      py      :     0.000261
      dz2     :     0.000024  d :     0.000115
      dxz     :     0.000010
      dyz     :     0.000027
      dx2y2   :     0.000003
      dxy     :     0.000051

  7 H s       :    -0.000179  s :    -0.000179
      pz      :    -0.000033  p :    -0.000010
      px      :     0.000016
      py      :     0.000008
      dz2     :     0.000002  d :     0.000013
      dxz     :     0.000002
      dyz     :     0.000000
      dx2y2   :     0.000004
      dxy     :     0.000004

  8 H s       :    -0.000221  s :    -0.000221
      pz      :    -0.000034  p :    -0.000021
      px      :     0.000026
      py      :    -0.000013
      dz2     :     0.000001  d :     0.000006
      dxz     :     0.000007
      dyz     :    -0.000001
      dx2y2   :    -0.000000
      dxy     :    -0.000001

  9 H s       :     0.007458  s :     0.007458
      pz      :    -0.000007  p :    -0.000891
      px      :    -0.000380
      py      :    -0.000504
      dz2     :    -0.000041  d :    -0.000251
[...]
     36      -0.006105   0.014133  -0.001030   0.003574   0.015630  -0.014239
     37       0.007733  -0.012520   0.001579  -0.004413  -0.018959   0.020422
     38       0.001476  -0.003186  -0.000668   0.000274  -0.002104   0.001980
     39      -0.000023  -0.000006  -0.000121   0.000159   0.000019   0.000201
     40       0.000092  -0.000166  -0.000146   0.000100  -0.000010   0.000136
     41       0.000023   0.000073   0.000075   0.000036  -0.000027   0.000141
     42      -0.001370   0.000766   0.002324  -0.001145  -0.001952  -0.002530
     43      -0.000256   0.001224   0.003021  -0.003958  -0.001836  -0.003568
     44      -0.000408   0.004443  -0.001195   0.000601   0.003868  -0.002799
                 42         43         44    
      0       0.000766  -0.002753   0.000082
      1       0.000611  -0.002519   0.000020
      2       0.000563   0.000427   0.000030
      3      -0.000416   0.000209  -0.000083
      4      -0.000393  -0.002228   0.000050
      5      -0.001636   0.001513   0.000413
      6       0.003090   0.002168  -0.000020
      7      -0.002319  -0.001477   0.000058
      8      -0.001348   0.000155   0.000076
      9       0.047512   0.025835   0.000728
     10       0.064787   0.026147   0.000111
     11       0.002197   0.001050  -0.000121
     12       0.013958  -0.051678  -0.000581
     13      -0.025893   0.066472  -0.000186
     14      -0.001608   0.005859  -0.000436
     15      -0.000162   0.005987   0.000464
     16      -0.001131   0.005242   0.001728
     17       0.000925  -0.014962  -0.001266
     18      -0.007948   0.015057  -0.001042
     19      -0.003023   0.005910   0.000849
     20      -0.008051   0.010837  -0.003064
     21       0.000983  -0.001275   0.001170
     22      -0.003234   0.019395  -0.002326
     23       0.001557  -0.010661   0.001878
     24       0.000726  -0.000349  -0.000625
     25       0.003263  -0.001639  -0.000163
     26       0.017179  -0.011267  -0.006243
     27      -0.025142  -0.011627   0.001164
     28       0.007626   0.003510   0.000625
     29       0.022494   0.009741   0.000534
     30      -0.000312  -0.004670   0.001147
     31       0.002317   0.003229  -0.000189
     32      -0.003473  -0.011419  -0.001250
     33      -0.532782  -0.214592   0.002594
     34      -0.753677  -0.296875  -0.000429
     35      -0.026376  -0.009712  -0.003110
     36      -0.207655   0.523066  -0.004253
     37       0.307634  -0.760272   0.005644
     38       0.025151  -0.062025  -0.001012
     39      -0.000025  -0.000176  -0.029767
     40       0.000222  -0.000828  -0.055418
     41      -0.000419  -0.000804   0.007812
     42      -0.000760   0.003614   0.470335
     43      -0.001718   0.005212   0.873229
     44      -0.000919   0.004939  -0.109992


-----------
IR SPECTRUM
-----------

 Mode   freq       eps      Int      T**2         TX        TY        TZ
       cm**-1   L/(mol*cm) km/mol    a.u.
----------------------------------------------------------------------------
  7:    113.72   0.000836    4.22  0.002293  ( 0.033143 -0.006234 -0.033996)
  8:    140.37   0.001272    6.43  0.002827  ( 0.039044 -0.035791  0.004677)
  9:    210.53   0.003049   15.41  0.004520  (-0.021037 -0.016239  0.061756)
 10:    353.79   0.000673    3.40  0.000594  (-0.014140  0.011075 -0.016463)
 11:    424.05   0.012653   63.95  0.009312  (-0.083365  0.047358  0.010919)
 12:    609.66   0.000169    0.86  0.000087  (-0.003858  0.000941  0.008423)
 13:    686.10   0.009216   46.57  0.004192  (-0.001903 -0.001733 -0.064691)
 14:    760.73   0.008331   42.10  0.003418  (-0.001623 -0.003217  0.058350)
 15:    781.85   0.000014    0.07  0.000005  (-0.002106 -0.000904 -0.000382)
 16:    834.86   0.001384    7.00  0.000517  ( 0.000723  0.004195  0.022346)
 17:    889.06   0.000455    2.30  0.000160  ( 0.012557 -0.000824 -0.001133)
 18:    920.82   0.000187    0.95  0.000064  (-0.005389  0.004916  0.003210)
 19:    929.21   0.002701   13.65  0.000907  (-0.028256  0.000058 -0.010429)
 20:    986.11   0.001166    5.89  0.000369  ( 0.006204 -0.000789  0.018164)
 21:    997.00   0.000297    1.50  0.000093  (-0.000064  0.006536 -0.007078)
 22:   1048.13   0.000643    3.25  0.000191  ( 0.013393 -0.002056  0.002780)
 23:   1073.74   0.002502   12.64  0.000727  (-0.001769  0.000711 -0.026898)
 24:   1137.29   0.001547    7.82  0.000424  (-0.002502  0.003714 -0.020108)
 25:   1153.41   0.000374    1.89  0.000101  (-0.008907  0.002052 -0.004201)
 26:   1227.59   0.000029    0.15  0.000007  (-0.000421 -0.002128 -0.001638)
 27:   1240.44   0.000458    2.31  0.000115  (-0.000968 -0.002736 -0.010333)
 28:   1313.44   0.000431    2.18  0.000102  (-0.009975  0.000065 -0.001699)
 29:   1335.10   0.000059    0.30  0.000014  (-0.001684 -0.002682 -0.001957)
 30:   1341.05   0.000366    1.85  0.000085  ( 0.002460  0.008652  0.002067)
 31:   1395.55   0.000551    2.79  0.000123  (-0.011056  0.000748  0.000690)
 32:   1477.83   0.001228    6.20  0.000259  ( 0.004942  0.000509  0.015315)
 33:   1486.84   0.000780    3.94  0.000164  (-0.011103  0.002808  0.005708)
 34:   1503.63   0.000731    3.69  0.000152  (-0.003498 -0.011198 -0.003738)
 35:   1662.43   0.031264  158.00  0.005869  ( 0.003910 -0.025778  0.072035)
 36:   3025.19   0.005754   29.08  0.000594  ( 0.018487 -0.004131  0.015321)
 37:   3041.46   0.006635   33.53  0.000681  ( 0.020691  0.002221 -0.015740)
 38:   3088.14   0.003483   17.60  0.000352  (-0.010484 -0.014186  0.006386)
 39:   3097.01   0.006455   32.62  0.000650  (-0.012278  0.021779  0.005035)
 40:   3121.07   0.002776   14.03  0.000278  ( 0.013311  0.009083  0.004227)
 41:   3141.08   0.003818   19.29  0.000379  ( 0.000231 -0.008041  0.017737)
 42:   3204.83   0.001192    6.02  0.000116  ( 0.007193  0.007047  0.003829)
 43:   3235.16   0.003186   16.10  0.000307  (-0.000771  0.012017  0.012742)
 44:   3789.96   0.004560   23.04  0.000375  ( 0.002433  0.012041 -0.014985)

* The epsilon (eps) is given for a Dirac delta lineshape.
** The dipole moment derivative (T) already includes vibrational overlap.

The first frequency considered to be a vibration is 7
The total number of vibrations considered is 38


--------------------------
THERMOCHEMISTRY AT 298.15K
--------------------------

Temperature         ...   298.15 K
Pressure            ...     1.00 atm
Total Mass          ...    85.13 AMU
Quasi RRHO          ...     True
Cut-Off Frequency   ...     1.00 cm^-1

Throughout the following assumptions are being made:
  (1) The electronic state is orbitally nondegenerate
      but the spin degeneracy is treated
  (2) There are no thermally accessible electronically excited states
  (3) Hindered rotations indicated by low frequency modes are not
      treated as such but are treated as vibrations and this may
      cause some error
  (4) All equations used are the standard statistical mechanics
      equations for an ideal gas
  (5) All vibrations are strictly harmonic

freq.     113.72  E(vib)   ...       0.44 
freq.     140.37  E(vib)   ...       0.41 
freq.     210.53  E(vib)   ...       0.34 
freq.     353.79  E(vib)   ...       0.22 
freq.     424.05  E(vib)   ...       0.18 
freq.     609.66  E(vib)   ...       0.10 
freq.     686.10  E(vib)   ...       0.07 
freq.     760.73  E(vib)   ...       0.06 
freq.     781.85  E(vib)   ...       0.05 
freq.     834.86  E(vib)   ...       0.04 
freq.     889.06  E(vib)   ...       0.04 
freq.     920.82  E(vib)   ...       0.03 
freq.     929.21  E(vib)   ...       0.03 
freq.     986.11  E(vib)   ...       0.02 
freq.     997.00  E(vib)   ...       0.02 
freq.    1048.13  E(vib)   ...       0.02 
freq.    1073.74  E(vib)   ...       0.02 
freq.    1137.29  E(vib)   ...       0.01 
freq.    1153.41  E(vib)   ...       0.01 
freq.    1227.59  E(vib)   ...       0.01 
freq.    1240.44  E(vib)   ...       0.01 
freq.    1313.44  E(vib)   ...       0.01 
freq.    1335.10  E(vib)   ...       0.01 
freq.    1341.05  E(vib)   ...       0.01 
freq.    1395.55  E(vib)   ...       0.00 
freq.    1477.83  E(vib)   ...       0.00 
freq.    1486.84  E(vib)   ...       0.00 
freq.    1503.63  E(vib)   ...       0.00 
freq.    1662.43  E(vib)   ...       0.00 
freq.    3025.19  E(vib)   ...       0.00 
freq.    3041.46  E(vib)   ...       0.00 
freq.    3088.14  E(vib)   ...       0.00 
freq.    3097.01  E(vib)   ...       0.00 
freq.    3121.07  E(vib)   ...       0.00 
freq.    3141.08  E(vib)   ...       0.00 
freq.    3204.83  E(vib)   ...       0.00 
freq.    3235.16  E(vib)   ...       0.00 
freq.    3789.96  E(vib)   ...       0.00 

------------
INNER ENERGY
------------

The inner energy is: U= E(el) + E(ZPE) + E(vib) + E(rot) + E(trans)
    E(el)   - is the total energy from the electronic structure calculation
              = E(kin-el) + E(nuc-el) + E(el-el) + E(nuc-nuc)
    E(ZPE)  - the the zero temperature vibrational energy from the frequency calculation
    E(vib)  - the the finite temperature correction to E(ZPE) due to population
              of excited vibrational states
    E(rot)  - is the rotational thermal energy
    E(trans)- is the translational thermal energy

Summary of contributions to the inner energy U:
Electronic energy                ...   -270.66338263 Eh
Zero point energy                ...      0.12935034 Eh      81.17 kcal/mol
Thermal vibrational correction   ...      0.00348872 Eh       2.19 kcal/mol
Thermal rotational correction    ...      0.00141627 Eh       0.89 kcal/mol
Thermal translational correction ...      0.00141627 Eh       0.89 kcal/mol
-----------------------------------------------------------------------
Total thermal energy                   -270.52771103 Eh


Summary of corrections to the electronic energy:
(perhaps to be used in another calculation)
Total thermal correction                  0.00632126 Eh       3.97 kcal/mol
Non-thermal (ZPE) correction              0.12935034 Eh      81.17 kcal/mol
-----------------------------------------------------------------------
Total correction                          0.13567160 Eh      85.14 kcal/mol


--------
ENTHALPY
--------

The enthalpy is H = U + kB*T
                kB is Boltzmann's constant
Total thermal energy              ...   -270.52771103 Eh 
Thermal Enthalpy correction       ...      0.00094421 Eh       0.59 kcal/mol
-----------------------------------------------------------------------
Total Enthalpy                    ...   -270.52676682 Eh


Note: Only C1 symmetry has been detected, increase convergence thresholds 
      if your molecule has a higher symmetry. Symmetry factor of 1.0 is   
      used for the rotational entropy correction. 
 

Note: Rotational entropy computed according to Herzberg 
Infrared and Raman Spectra, Chapter V,1, Van Nostrand Reinhold, 1945 
Point Group:  C1, Symmetry Number:   1  
Rotational constants in cm-1:     0.156239     0.110723     0.097224 

Vibrational entropy computed according to the QRRHO of S. Grimme
Chem.Eur.J. 2012 18 9955 using a reference frequency of 100.0 cm-1


-------
ENTROPY
-------

The entropy contributions are T*S = T*(S(el)+S(vib)+S(rot)+S(trans))
     S(el)   - electronic entropy
     S(vib)  - vibrational entropy
     S(rot)  - rotational entropy
     S(trans)- translational entropy
The entropies will be listed as multiplied by the temperature to get
units of energy

Electronic entropy                ...      0.00065446 Eh      0.41 kcal/mol
Vibrational entropy               ...      0.00584067 Eh      3.67 kcal/mol
Rotational entropy                ...      0.01252644 Eh      7.86 kcal/mol
Translational entropy             ...      0.01864317 Eh     11.70 kcal/mol
-----------------------------------------------------------------------
Final entropy term                ...      0.03766474 Eh     23.63 kcal/mol

In case the symmetry of your molecule has not been determined correctly
or in case you have a reason to use a different symmetry number we print 
out the resulting rotational entropy values for sn=1,12:

 non-linear molecules -----------------------------------
|  sn= 1 | S(rot)=       0.01252644 Eh      7.86 kcal/mol|
|  sn= 2 | S(rot)=       0.01187199 Eh      7.45 kcal/mol|
|  sn= 3 | S(rot)=       0.01148915 Eh      7.21 kcal/mol|
|  sn= 4 | S(rot)=       0.01121753 Eh      7.04 kcal/mol|
|  sn= 5 | S(rot)=       0.01100684 Eh      6.91 kcal/mol|
|  sn= 6 | S(rot)=       0.01083470 Eh      6.80 kcal/mol|
|  sn= 7 | S(rot)=       0.01068915 Eh      6.71 kcal/mol|
|  sn= 8 | S(rot)=       0.01056307 Eh      6.63 kcal/mol|
|  sn= 9 | S(rot)=       0.01045187 Eh      6.56 kcal/mol|
|  sn=10 | S(rot)=       0.01035239 Eh      6.50 kcal/mol|
|  sn=11 | S(rot)=       0.01026240 Eh      6.44 kcal/mol|
|  sn=12 | S(rot)=       0.01018024 Eh      6.39 kcal/mol|
 linear molecules ---------------------------------------
|  Dinfh | S(rot)=       0.00752645 Eh      4.72 kcal/mol|
|  Cinfv | S(rot)=       0.00818090 Eh      5.13 kcal/mol|
 --------------------------------------------------------


-------------------
GIBBS FREE ENERGY
-------------------

The Gibbs free energy is G = H - T*S

Total enthalpy                    ...   -270.52676682 Eh 
Total entropy correction          ...     -0.03766474 Eh    -23.63 kcal/mol
-----------------------------------------------------------------------
Final Gibbs free energy         ...   -270.56443156 Eh

For completeness - the Gibbs free energy minus the electronic energy
G-E(el)                           ...      0.09895107 Eh     62.09 kcal/mol



--------------------------------
SUGGESTED CITATIONS FOR THIS RUN
--------------------------------

Below you find a list of papers that are relevant to this ORCA run
We neither can nor want to force you to cite these papers, but we appreciate if you do
You receive ORCA, which is the product of decades of hard work by many enthusiastic individuals, for free
The only thing we kindly ask in return is that you cite our papers,
We deeply appreciate it, if you show your appreciation for ORCA by not just citing the generic ORCA reference.

Please note that relegating all ORCA citations to the supporting information does *not* help us.
SI sections are not indexed - citations you put there will not count into any citation statistics
But we need these citations in order to attract the funding resources that allow us to do what we are doing

Therefore, if you are a happy ORCA user, please consider citing a few of the papers listed below in the main body of your paper

In addition to the list printed below, the program has created the file opt.bibtex that contains the list in bibtex format
You can import this file easily into all common literature databanks and citation aid programs


List of essential papers. We consider these as the minimum necessary citations

  1. Neese, F.
     Software update: the ORCA program system, version 6.0
     WIRES Comput. Molec. Sci. 2025 15(1), e70019
     doi.org/10.1002/wcms.7019

List of papers to cite with high priority. The work reported in these papers was absolutely
necessary for this run to complete.
Our perspective: the developers of density functionals and basis sets usually get cited in chemistry papers
Good! But without the algorithms to do something with them, the functionals or basis sets would not do anything.
Hence, in our opinion, the algorithm design and method developments papers are equally worthy of getting cited

  1. Neese, F.
     An improvement of the resolution of the identity approximation for the formation of the Coulomb matrix
     J. Comp. Chem. 2003 24(14), 1740-1747
     doi.org/10.1002/jcc.10318
  2. Neese, F.; Schwabe, T.; Grimme, S.
     Analytic derivatives for perturbatively corrected 'double hybrid' density functionals: Theory, implementation, and applications
     J. Chem. Phys. 2007 126(12), Art. No. 124115
     doi.org/10.1063/1.2712433
  3. Neese, F.; Wennmohs, F.; Hansen, A.; Becker, U.
     Efficient, approximate and parallel Hartree-Fock and hybrid DFT calculations. A 'chain-of-spheres' algorithm for the Hartree-Fock exchange
     Chem. Phys. 2009 356(1-3), 98-109
     doi.org/10.1016/j.chemphys.2008.10.036
  4. Kossmann, S.; Neese, F.
     Efficient Structure Optimization with Second-Order Many-Body Perturbation Theory: The RIJCOSX-MP2 Method
     J. Theo. Comp. Chem. 2010 6 , 2325-2338
     doi.org/10.1021/ct100199k
  5. Caldeweyher, E.; Bannwarth, C.; Grimme, S.
     Extension of the D3 dispersion coefficient model
     J. Chem. Phys. 2017 147 , 034112
     doi.org/10.1063/1.4993215
  6. Caldeweyher, E.; Ehlert, S.; Hansen, A.; Neugebauer, H.; Spicher, S.; Bannwarth, C.; Grimme, S.
     A generally applicable atomic-charge dependent London dispersion correction
     J. Chem. Phys. 2019 150 , 154122
     doi.org/10.1063/1.5090222
  7. Caldeweyher, E.; Mewes, J.; Ehlert, S.; Grimme, S.
     Extension and evaluation of the D4 London-dispersion model for periodic systems
     Phys. Chem. Chem. Phys. 2020 22(16), 8499-8512
     doi.org/10.1039/D0CP00502A
  8. Helmich-Paris, B.; de Souza, B.; Neese, F.; Izsák, R.
     An improved chain of spheres for exchange algorithm
     J. Chem. Phys. 2021 155(10), 104109
     doi.org/10.1063/5.0058766
  9. Neese, F.
     The SHARK Integral Generation and Digestion System
     J. Comp. Chem. 2022 44(3), 381
     doi.org/10.1002/jcc.26942
 10. Wittmann, L.; Gordiy, I.; Friede, M.; Helmich-Paris, B.; Grimme, S.; Hansen, A.; Bursch, M.
     Extension of the D3 and D4 London Dispersion Corrections to the full Actinides Series
     Phys. Chem. Chem. Phys. 2024 26(32), 21379-21394
     doi.org/10.1039/D4CP01514B

List of suggested additional citations. These are papers that are important in the 'surrounding' of 
of this run, or papers that preceded the highly important papers. If you like your results we are grateful for a citation.

  1. Izsak, R.; Neese, F.
     An overlap fitted chain of spheres exchange method
     J. Chem. Phys. 2011 135 , 144105
     doi.org/10.1063/1.3646921
  2. Izsak, R.; Hansen, A.; Neese, F.
     The resolution of identity and chain of spheres approximations for the LPNO-CCSD singles Fock term
     Molec. Phys. 2012 110 , 2413-2417
     doi.org/10.1080/00268976.2012.687466
  3. Neese, F.
     The ORCA program system
     WIRES Comput. Molec. Sci. 2012 2(1), 73-78
     doi.org/10.1002/wcms.81
  4. Izsak, R.; Neese, F.; Klopper, W.
     Robust fitting techniques in the chain of spheres approximation to the Fock exchange: The role of the complementary space
     J. Chem. Phys. 2013 139 , 
     doi.org/10.1063/1.4819264
  5. Neese, F.
     Software update: the ORCA program system, version 4.0
     WIRES Comput. Molec. Sci. 2018 8(1), 1-6
     doi.org/10.1002/wcms.1327
  6. Neese, F.; Wennmohs, F.; Becker, U.; Riplinger, C.
     The ORCA quantum chemistry program package
     J. Chem. Phys. 2020 152(22), 224108
     doi.org/10.1063/5.0004608
  7. Neese, F.
     Software update: The ORCA program system—Version 5.0
     WIRES Comput. Molec. Sci. 2022 12(1), e1606
     doi.org/10.1002/wcms.1606

List of optional additional citations

  1. Neese, F.
     Approximate second-order SCF convergence for spin unrestricted wavefunctions
     Chem. Phys. Lett. 2000 325(1-3), 93-98
     doi.org/10.1016/s0009-2614(00)00662-x

Timings for individual modules:

Sum of individual times          ...     5075.556 sec (=  84.593 min)
Startup calculation              ...       64.339 sec (=   1.072 min)   1.3 %
SCF iterations                   ...      590.364 sec (=   9.839 min)  11.6 %
Property calculations            ...        1.886 sec (=   0.031 min)   0.0 %
MP2 module                       ...      735.332 sec (=  12.256 min)  14.5 %
Geometry relaxation              ...        0.582 sec (=   0.010 min)   0.0 %
Numerical frequency calculation  ...     3683.052 sec (=  61.384 min)  72.6 %
                             ****ORCA TERMINATED NORMALLY****
TOTAL RUN TIME: 0 days 1 hours 23 minutes 47 seconds 987 msec
