
                                 *****************
                                 * O   R   C   A *
                                 *****************

                                            #,                                       
                                            ###                                      
                                            ####                                     
                                            #####                                    
                                            ######                                   
                                           ########,                                 
                                     ,,################,,,,,                         
                               ,,#################################,,                 
                          ,,##########################################,,             
                       ,#########################################, ''#####,          
                    ,#############################################,,   '####,        
                  ,##################################################,,,,####,       
                ,###########''''           ''''###############################       
              ,#####''   ,,,,##########,,,,          '''####'''          '####       
            ,##' ,,,,###########################,,,                        '##       
           ' ,,###''''                  '''############,,,                           
         ,,##''                                '''############,,,,        ,,,,,,###''
      ,#''                                            '''#######################'''  
     '                                                          ''''####''''         
             ,#######,   #######,   ,#######,      ##                                
            ,#'     '#,  ##    ##  ,#'     '#,    #''#        ,####,    ,#,          
            ##       ##  ##   ,#'  ##            #'  '#       #'       ,# #          
            ##       ##  #######   ##           ,######,      #####,      #          
            '#,     ,#'  ##    ##  '#,     ,#' ,#      #,     #,   #      #          
             '#######'   ##     ##  '#######'  #'      '#     '####' #    #          



                #########################################################
                #                        -***-                          #
                #          Department of theory and spectroscopy        #
                #                                                       #
                #                      Frank Neese                      #
                #                                                       #
                #     Directorship, Architecture, Infrastructure        #
                #                    SHARK, DRIVERS                     #
                #        Core code/Algorithms in most modules           #
                #                                                       #
                #        Max Planck Institute fuer Kohlenforschung      #
                #                Kaiser Wilhelm Platz 1                 #
                #                 D-45470 Muelheim/Ruhr                 #
                #                      Germany                          #
                #                                                       #
                #                  All rights reserved                  #
                #                        -***-                          #
                #########################################################


                         Program Version 6.1.0  -  RELEASE   -
                                (GIT: $679e74b$)
                          ($2025-06-10 18:02:51 +0200$)


 With contributions from (in alphabetic order):
[Max-Planck-Institut fuer Kohlenforschung]                               
  Daniel Aravena         : Magnetic Suceptibility                        
  Michael Atanasov       : Ab Initio Ligand Field Theory (pilot matlab implementation)
  Alexander A. Auer      : GIAO ZORA, VPT2 properties, NMR spectrum      
  Ute Becker             : All parallelization in ORCA, NUMFREQ, NUMCALC 
  Giovanni Bistoni       : ED, misc. LED, open-shell LED, HFLD           
  Dmytro Bykov           : pre 5.0 version of the SCF Hessian            
  Marcos Casanova-Páez   : Triplet and SCS-CIS(D). UHF-(DLPNO)-IP/EA/STEOM-CCSD. UHF-CVS-IP/STEOM-CCSD   
  Vijay G. Chilkuri      : MRCI spin determinant printing, contributions to CSF-ICE 
  Pauline Colinet        : FMM embedding                                 
  Dipayan Datta          : RHF DLPNO-CCSD density                        
  Achintya Kumar Dutta   : EOM-CC, STEOM-CC                              
  Nicolas Foglia         : Exact transition moments, OPA infrastructure, MCD improvements    
  Dmitry Ganyushin       : Spin-Orbit,Spin-Spin,Magnetic field MRCI      
  Miquel Garcia-Rates    : C-PCM and meta-GGA Hessian, CCSD/C-PCM, Gaussian charge scheme 
  Tiago L. C. Gouveia    : GS-ROHF, GS-ROCIS                             
  Yang Guo               : DLPNO-NEVPT2, F12-NEVPT2, CIM, IAO-localization        
  Andreas Hansen         : Spin unrestricted coupled pair/coupled cluster methods 
  Ingolf Harden          : AUTO-CI MPn and infrastructure                
  Benjamin Helmich-Paris : MC-RPA, TRAH-(SCF,CASSCF), AVAS, COSX integrals, SCF dyn. polar., MC-PDFT, srDFT 
  Lee Huntington         : MR-EOM, pCC                                   
  Robert Izsak           : Overlap fitted RIJCOSX, COSX-SCS-MP3, EOM     
  Riya Kayal             : Wick's Theorem for AUTO-CI, AUTO-CI UHF-CCSDT 
  Emily Kempfer          : AUTO-CI RHF CISDT and CCSDT, approximate NEVPT4
  Christian Kollmar      : KDIIS, OOCD, Brueckner-CCSD(T), CCSD density, CASPT2, CASPT2-K, improved NEVPT2 
  Axel Koslowski         : Symmetry handling                             
  Simone Kossmann        : meta-GGA functionals, TD-DFT gradient, OOMP2, (MP2 Hessian; deprecated post 5.0) 
  Lucas Lang             : DCDCAS, Hyperfine gauge corrections, ICE-SOC+SSC
  Marvin Lechner         : AUTO-CI (C++ implementation), FIC-MRCC        
  Spencer Leger          : CASSCF response                               
  Dagmar Lenk            : GEPOL surface, SMD, ORCA-2-JSON               
  Dimitrios Liakos       : Extrapolation schemes; Compound Job, Property file
  Dimitrios Manganas     : Further ROCIS development; embedding schemes. LFT, Crystal Embedding 
  Dimitrios Pantazis     : SARC Basis sets                               
  Anastasios Papadopoulos: AUTO-CI, single reference methods and gradients 
  Taras Petrenko         : pre 6.0 DFT Hessian and TD-DFT gradient,  ECA, NRVS 
  Petra Pikulova         : Analytic Raman intensities                    
  Peter Pinski           : DLPNO-MP2, DLPNO-MP2 Gradient                 
  Shashank Vittal Rao    : ES-AILFT, MagRelax                            
  Christoph Reimann      : Effective Core Potentials                     
  Marius Retegan         : Local ZFS, SOC                                
  Christoph Riplinger    : Optimizer, TS searches, QM/MM, DLPNO-CCSD(T), (RO)-DLPNO pert. Triples 
  Michael Roemelt        : Original ROCIS implementation, recursive CI coupling coefficients
  Masaaki Saitow         : Open-shell DLPNO-CCSD energy and density      
  Barbara Sandhoefer     : DKH picture change effects                    
  Yorick L. A. Schmerwitz: GMF and freeze-and-release deltaSCF, NEB S-IDPP initial path                    
  Kantharuban Sivalingam : CASSCF convergence/infrastructure, NEVPT2, NEVPT3, NEVPT4(SD), FIC-MRCI and CEPA variants
  Bernardo de Souza      : ESD, SOC TD-DFT                               
  Georgi L. Stoychev     : AutoAux, RI-MP2 NMR, DLPNO-MP2 response, X2C  
  Van Anh Tran           : RI-MP2 g-tensors                              
  Willem Van den Heuvel  : Paramagnetic NMR                              
  Zikuan Wang            : NOTCH, Electric field optimization            
  Frank Wennmohs         : Technical directorship and infrastructure     
  Hang Xu                : AUTO-CI-Response properties                   
                                                                         
[FACCTs GmbH]                                                            
  Markus Bursch, Nicolas Foglia, Miquel Garcia-Rates, Ingolf Harden, Hagen Neugebauer, Anastasios Papadopoulos, 
  Christoph Riplinger, Bernardo de Souza, Georgi L. Stoychev                                                    
                                                                 
  APM, various basis sets, CI-OPT, improved COSX, DLPNO-Multilevel,           
  DOCKER, DRACO, updates on ESD, Fragmentator, GOAT, IRC, LR-CPCM, L-BFGS, MBIS, meta-GGA TD-DFT gradient, ML-optimized integration grids, 
  MM, NACMEs, nearIR, NEB, NEB-TS, NL-DFT gradient (VV10), 2- and 3-layer-ONIOM, interface openCOSMO-RS, QMMM,   
  Crystal-QMMM, RESP, rigid body optimization, SF, symmetry and pop. for TD-DFT, various functionals, SOLVATOR                                   
                                                                         
[Other institutions]                                                     
  V. Asgeirsson          : NEB                                           
  Christoph Bannwarth    : sTDA-DFT, sTD-DFT, PBEh-3c, B97-3c, D3        
  Giovanni Bistoni       : ETS/NOCV, ADLD/ADEX, COVALED                  
  Martin Brehm           : Molecular dynamics                            
  Ronald Cardenas        : ETS/NOCV                                      
  Martina Colucci        : COVALED                                       
  Sebastian Ehlert       : rSCAN, r2SCAN, r2SCAN-3c, D4, dhf basis sets  
  Marvin Friede          : D4 for Fr, Ra, Ac-Lr                          
  Lars Goerigk           : TD-DFT with DH, B97 family of functionals     
  Stefan Grimme          : VdW corrections, initial TS optimization, DFT functionals, gCP, sTDA/sTD-DF 
  Waldemar Hujo          : DFT-NL                                        
  H. Jonsson             : NEB                                           
  Holger Kruse           : gCP                                           
  Marcel Mueller         : wB97X-3c, vDZP basis set                      
  Hagen Neugebauer       : wr2SCAN, Native XTB                           
  Gianluca Regni         : ADLD/ADEX                                     
  Tobias Risthaus        : pre 6.0 range-separated hybrid DFT and stability analysis
  Lukas Wittmann         : regularized MP2, r2SCAN double-hybrids, wr2SCAN        
                                                                         
We gratefully acknowledge several colleagues who have allowed us to      
interface, adapt or use parts of their codes:                            
  Ed Valeev, F. Pavosevic, A. Kumar             : LibInt (2-el integral package), F12 methods 
  Garnet Chan, S. Sharma, J. Yang, R. Olivares  : DMRG                   
  Ulf Ekstrom                                   : XCFun DFT Library      
  Mihaly Kallay                                 : mrcc  (arbitrary order and MRCC methods)
  Frank Weinhold                                : gennbo (NPA and NBO analysis)           
  Simon Mueller                                 : openCOSMO-RS                            
  Christopher J. Cramer and Donald G. Truhlar   : smd solvation model                     
  S Lehtola, MJT Oliveira, MAL Marques          : LibXC Library                           
  Liviu Ungur et al                             : ANISO software                          


 Your calculation uses the libint2 library for the computation of 2-el integrals
 For citations please refer to: http://libint.valeyev.net

 Your ORCA version has been built with support for libXC version: 7.0.0
 For citations please refer to: https://libxc.gitlab.io

 This ORCA versions uses:
   CBLAS   interface :  Fast vector & matrix operations
   LAPACKE interface :  Fast linear algebra routines
   SCALAPACK package :  Parallel linear algebra routines
   Shared memory     :  Shared parallel matrices
   BLAS/LAPACK       :  OpenBLAS 0.3.29  USE64BITINT DYNAMIC_ARCH NO_AFFINITY SkylakeX SINGLE_THREADED
        Core in use  :  SkylakeX
   Copyright (c) 2011-2014, The OpenBLAS Project


  ***********************************
  * Starting time: Wed Aug 20 08:45:26 2025
  * Host name:     csed-0009
  * Process ID:    1562346
  * Working dir.:  /gpfs/fs1/home/copan/proj/cyclopentene-oh-addition-project/calc/C3e1+OH/run-revdsd
  ***********************************

NOTE: MaxCore=10000 MB was set to SCF,MP2,MDCI,CIPSI,MRCI,RASCI and CIS
      => If you want to overwrite this, your respective input block should be placed after the MaxCore statement


***************************************
The coordinates will be read from file: guess.xyz
***************************************


Your calculation utilizes the atom-pairwise dispersion correction
based on EEQ partial charges (D4)


Warning: RI is on but no J-basis has been assigned. Assigning Def2/J (nothing to worry about!)
================================================================================

----- Orbital basis set information -----
Your calculation utilizes the basis: def2-TZVPP
   F. Weigend and R. Ahlrichs, Phys. Chem. Chem. Phys. 7, 3297 (2005).

----- AuxJ basis set information -----
Your calculation utilizes the auxiliary basis: def2/J
   H-Rn: F. Weigend, Phys. Chem. Chem. Phys. 8, 1057 (2006).
   Fr-Lr: K. Eichkorn, F. Weigend, O. Treutler, R. Ahlrichs; Theor. Chem. Acc. 97, 119 (1997).

----- AuxC basis set information -----
Your calculation utilizes the auxiliary basis: def2-TZVPP/C
  H-La, Hf-Rn : A. Hellweg, C. Hattig, S. Hofener and W. Klopper, Theor. Chem. Acc. 117, 587 (2007).
        Ce-Lu : J. Chmela and M. E. Harding, Mol. Phys. (2018).

================================================================================
                                        WARNINGS
                       Please study these warnings very carefully!
================================================================================


WARNING: your system is open-shell and RHF/RKS was chosen
  ===> : WILL SWITCH to UHF/UKS


WARNING: The frozen-core approximation for MP2-gradient calculations is turned on by default.

WARNING: Geometry Optimization
  ===> : Switching off AutoStart
         For restart on a previous wavefunction, please use MOREAD

WARNING: The frozen-core approximation is turned on by default for 
         the MP2 part of double-hybrid DFT.

================================================================================
                                       INPUT FILE
================================================================================
NAME = opt.inp
|  1> % MaxCore 10000
|  2> ! PAL8
|  3> ! REVDSD-PBEP86-D4/2021 def2-TZVPP def2-TZVPP/c
|  4> ! OPT
|  5> * xyzfile 0 2 guess.xyz
|  6> 
|  7>                          ****END OF INPUT****
================================================================================

                       *****************************
                       * Geometry Optimization Run *
                       *****************************

Geometry optimization settings:
Update method            Update   .... BFGS
Choice of coordinates    CoordSys .... (2022) Redundant Internals
Initial Hessian          InHess   .... Almloef's Model
Max. no of cycles        MaxIter  .... 50

Convergence Tolerances:
Energy Change            TolE     ....  5.0000e-06 Eh
Max. Gradient            TolMAXG  ....  3.0000e-04 Eh/bohr
RMS Gradient             TolRMSG  ....  1.0000e-04 Eh/bohr
Max. Displacement        TolMAXD  ....  4.0000e-03 bohr
RMS Displacement         TolRMSD  ....  2.0000e-03 bohr
Strict Convergence                .... False

------------------------------------------------------------------------------
                        ORCA OPTIMIZATION COORDINATE SETUP
------------------------------------------------------------------------------

The optimization will be done in redundant internal coordinates (2022)
Making redundant internal coordinates   ...  (2022 redundants) done
Evaluating the initial hessian          ...  (Almloef) done
Evaluating the coordinates              ...  done
Calculating the B-matrix                .... done
Calculating the G-matrix                .... done
The number of degrees of freedom        ....  192

    -----------------------------------------------------------------
                    Redundant Internal Coordinates


    -----------------------------------------------------------------
         Definition                    Initial Value    Approx d2E/dq
    -----------------------------------------------------------------
      1. B(C   1,C   0)                  1.3405         0.749343   
      2. B(H   2,C   0)                  1.0829         0.369564   
      3. B(H   3,C   0)                  1.0852         0.366548   
      4. B(H   4,C   1)                  1.0870         0.364150   
      5. B(C   5,C   1)                  1.5019         0.414268   
      6. B(H   6,C   5)                  1.0928         0.356438   
      7. B(H   7,C   5)                  1.0914         0.358251   
      8. B(H   8,C   5)                  1.0929         0.356279   
      9. B(O   9,H   8)                  3.0831         0.010000   
     10. B(H  10,H   4)                  2.8499         0.010000   
     11. B(H  10,H   3)                  2.7837         0.010000   
     12. B(H  10,H   8)                  2.7305         0.010000   
     13. B(H  10,C   0)                  2.4716         0.010000   
     14. B(H  10,C   5)                  2.9270         0.010000   
     15. B(H  10,C   1)                  2.4277         0.010000   
     16. B(H  10,H   7)                  3.1459         0.010000   
     17. B(H  10,O   9)                  0.9749         0.492267   
     18. B(H  10,H   2)                  2.9293         0.010000   
     19. A(H   3,C   0,H  10)           94.9444         0.153243   
     20. A(H   2,C   0,H   3)          117.3818         0.292845   
     21. A(C   1,C   0,H   3)          121.1381         0.365582   
     22. A(H   2,C   0,H  10)          104.0438         0.153363   
     23. A(C   1,C   0,H  10)           72.3218         0.176329   
     24. A(C   1,C   0,H   2)          121.4735         0.366095   
     25. A(C   0,C   1,H   4)          118.7448         0.365171   
     26. A(C   0,C   1,C   5)          124.6166         0.417771   
     27. A(H   4,C   1,C   5)          116.6379         0.330501   
     28. A(C   0,C   1,H  10)           75.9358         0.179579   
     29. A(C   5,C   1,H  10)           93.2852         0.168208   
     30. A(H   4,C   1,H  10)          101.4391         0.155535   
     31. A(C   0,H   2,H  10)           54.9394         0.113196   
     32. A(C   0,H   3,H  10)           62.2019         0.116260   
     33. A(C   1,H   4,H  10)           56.6092         0.114762   
     34. A(C   1,C   5,H  10)           55.9000         0.141297   
     35. A(H   7,C   5,H   8)          108.4430         0.290118   
     36. A(H   7,C   5,H  10)           91.2417         0.132768   
     37. A(H   6,C   5,H   8)          107.3885         0.289887   
     38. A(C   1,C   5,H   8)          110.6505         0.329310   
     39. A(H   8,C   5,H  10)           68.8727         0.132713   
     40. A(H   6,C   5,H  10)          159.8049         0.132718   
     41. A(H   6,C   5,H   7)          108.4752         0.290139   
     42. A(C   1,C   5,H   6)          110.7261         0.329334   
     43. A(C   1,C   5,H   7)          111.0408         0.329610   
     44. A(C   5,H   7,H  10)           68.4639         0.109067   
     45. A(C   5,H   8,H  10)           89.2047         0.117310   
     46. A(O   9,H   8,H  10)           18.0223         0.094216   
     47. A(C   5,H   8,O   9)          106.4973         0.126009   
     48. A(H   8,O   9,H  10)           60.0584         0.128355   
     49. A(H   7,H  10,H   8)           34.1822         0.091825   
     50. A(C   1,H  10,H   7)           43.0242         0.095606   
     51. A(H   3,H  10,H   8)           79.3046         0.092817   
     52. A(H   7,H  10,O   9)          120.7327         0.110312   
     53. A(C   0,H  10,H   3)           22.8537         0.097607   
     54. A(C   1,H  10,H   3)           47.3133         0.097927   
     55. A(H   3,H  10,O   9)          151.4867         0.117802   
     56. A(H   2,H  10,H   4)           49.6803         0.092062   
     57. A(H   2,H  10,H   3)           37.7302         0.092236   
     58. A(C   0,H  10,H   8)           76.3343         0.097996   
     59. A(C   1,H  10,H   2)           45.3873         0.096909   
     60. A(H   2,H  10,O   9)          163.2274         0.114518   
     61. A(C   1,H  10,H   8)           48.7487         0.098331   
     62. A(H   4,H  10,C   5)           45.0415         0.094579   
     63. A(H   8,H  10,O   9)          101.9193         0.119105   
     64. A(H   3,H  10,C   5)           58.0122         0.094894   
     65. A(C   5,H  10,H   8)           21.9226         0.095161   
     66. A(C   0,H  10,C   5)           54.8198         0.102891   
     67. A(C   0,H  10,H   2)           21.0168         0.096626   
     68. A(H   2,H  10,H   8)           93.7790         0.092382   
     69. A(C   1,H  10,C   5)           30.8148         0.103408   
     70. A(C   0,H  10,C   1)           31.7424         0.110039   
     71. A(H   2,H  10,C   5)           73.4958         0.094222   
     72. A(C   5,H  10,O   9)          122.8547         0.135484   
     73. A(C   0,H  10,O   9)          174.0138         0.156877   
     74. A(H   3,H  10,H   4)           66.0059         0.092457   
     75. A(H   4,H  10,H   8)           55.0135         0.092613   
     76. A(C   0,H  10,H   4)           45.6327         0.097146   
     77. A(H   2,H  10,H   7)           75.8206         0.091394   
     78. A(C   0,H  10,H   7)           54.8741         0.095369   
     79. A(C   1,H  10,H   4)           21.9518         0.097449   
     80. A(H   3,H  10,H   7)           48.4855         0.091702   
     81. A(C   5,H  10,H   7)           20.2945         0.093361   
     82. A(H   4,H  10,H   7)           62.1063         0.091558   
     83. A(H   4,H  10,O   9)          137.8210         0.116259   
     84. A(C   1,H  10,O   9)          148.7906         0.159403   
     85. D(C   5,C   1,C   0,H   3)     -0.8217         0.046905   
     86. D(H   4,C   1,C   0,H  10)    -95.4962         0.046905   
     87. D(H   4,C   1,C   0,H   3)    179.4871         0.046905   
     88. D(C   5,C   1,C   0,H  10)     84.1950         0.046905   
     89. D(H   4,C   1,C   0,H   2)      0.4453         0.046905   
     90. D(C   5,C   1,C   0,H   2)   -179.8635         0.046905   
     91. D(H  10,H   2,C   0,C   1)    -77.6493         0.129403   
     92. D(H  10,H   2,C   0,H   3)    103.2743         0.129403   
     93. D(H  10,H   3,C   0,H   2)   -108.6091         0.126839   
     94. D(H  10,H   3,C   0,C   1)     72.3112         0.126839   
     95. D(H  10,H   4,C   1,C   0)     80.1078         0.124825   
     96. D(H  10,H   4,C   1,C   5)    -99.6079         0.124825   
     97. D(H   6,C   5,C   1,C   0)    121.9721         0.014427   
     98. D(H   8,C   5,C   1,C   0)   -119.0759         0.014427   
     99. D(H   6,C   5,C   1,H  10)   -162.8694         0.014427   
    100. D(H   7,C   5,C   1,H   4)   -178.9004         0.014427   
    101. D(H   7,C   5,C   1,C   0)      1.4025         0.014427   
    102. D(H   7,C   5,C   1,H  10)     76.5610         0.014427   
    103. D(H   6,C   5,C   1,H   4)    -58.3308         0.014427   
    104. D(H  10,H   7,C   5,C   1)    -53.6658         0.130837   
    105. D(H  10,H   7,C   5,H   6)   -175.5575         0.130837   
    106. D(H  10,H   7,C   5,H   8)     68.1105         0.130837   
    107. D(O   9,H   8,C   5,C   1)     43.1517         0.139181   
    108. D(O   9,H   8,C   5,H   7)    -78.8634         0.139181   
    109. D(H  10,H   8,C   5,H   6)    158.9595         0.139181   
    110. D(H  10,H   8,C   5,H   7)    -84.0087         0.139181   
    111. D(H  10,H   8,C   5,C   1)     38.0064         0.139181   
    112. D(O   9,H   8,C   5,H   6)    164.1049         0.139181   
    113. D(H  10,O   9,H   8,C   5)    -16.8486         0.010000   
    114. D(O   9,H  10,C   0,H   2)    141.0131         0.010000   
    115. D(C   1,H  10,H   3,C   0)    -37.7748         0.010000   
    116. D(O   9,H  10,C   0,C   1)    -99.9653         0.010000   
    117. D(H   7,H  10,H   2,C   0)      4.3523         0.010000   
    118. D(C   5,H  10,H   2,C   0)     25.2681         0.010000   
    119. D(H   4,H  10,H   2,C   0)     69.6149         0.010000   
    120. D(H   8,H  10,H   2,C   0)     33.6840         0.010000   
    121. D(H   3,H  10,O   9,H   8)     89.4963         0.469806   
    122. D(O   9,H  10,H   2,C   0)   -166.8577         0.010000   
    123. D(H   3,H  10,C   1,H   4)    143.9583         0.010000   
    124. D(H   3,H  10,C   1,C   0)     26.8853         0.010000   
    125. D(H   3,H  10,H   8,C   5)     12.9266         0.010000   
    126. D(C   0,H  10,H   8,O   9)   -174.1281         0.010000   
    127. D(H   8,H  10,C   1,C   5)     20.2151         0.010000   
    128. D(H   8,H  10,C   1,H   4)    -97.8065         0.010000   
    129. D(O   9,H  10,H   8,C   5)    163.8628         0.010000   
    130. D(H   8,H  10,C   1,C   0)    145.1204         0.010000   
    131. D(C   0,H  10,C   1,C   5)   -124.9053         0.010000   
    132. D(H   3,H  10,H   8,O   9)   -150.9362         0.010000   
    133. D(H   4,H  10,H   8,O   9)    140.9602         0.010000   
    134. D(H   3,H  10,C   1,C   5)    -98.0201         0.010000   
    135. D(H   4,H  10,O   9,H   8)    -50.2230         0.469806   
    136. D(C   1,H  10,H   2,C   0)     40.2590         0.010000   
    137. D(H   7,H  10,O   9,H   8)     30.8930         0.469806   
    138. D(H   3,H  10,H   2,C   0)    -33.4047         0.010000   
    139. D(H   3,H  10,H   7,C   5)    110.7291         0.010000   
    140. D(H   8,H  10,H   7,C   5)    -38.8371         0.010000   
    141. D(C   0,H  10,C   1,H   4)    117.0731         0.010000   
    142. D(O   9,H  10,H   3,C   0)   -175.4731         0.010000   
    143. D(O   9,H  10,C   1,C   5)     43.6613         0.010000   
    144. D(H   8,H  10,H   3,C   0)    -80.1574         0.010000   
    145. D(H   4,H  10,H   3,C   0)    -23.8438         0.010000   
    146. D(C   5,H  10,H   3,C   0)    -74.5062         0.010000   
    147. D(H   8,H  10,C   5,C   1)   -135.9068         0.010000   
    148. D(O   9,H  10,C   1,H   4)    -74.3603         0.010000   
    149. D(O   9,H  10,C   1,C   0)    168.5666         0.010000   
    150. D(C   0,H  10,C   5,H   6)     84.8028         0.010000   
    151. D(C   0,H  10,C   5,C   1)     31.8620         0.010000   
    152. D(H   4,H  10,C   0,C   1)     27.7509         0.010000   
    153. D(H   3,H  10,C   0,H   2)    119.8347         0.010000   
    154. D(O   9,H  10,C   5,H   8)    -18.8884         0.010000   
    155. D(H   3,H  10,C   0,C   1)   -121.1437         0.010000   
    156. D(O   9,H  10,C   5,H   7)     90.4327         0.010000   
    157. D(O   9,H  10,C   5,H   6)   -101.8544         0.010000   
    158. D(H   8,H  10,C   0,H   3)     94.8828         0.010000   
    159. D(O   9,H  10,C   5,C   1)   -154.7952         0.010000   
    160. D(C   1,H  10,C   5,H   6)     52.9408         0.010000   
    161. D(C   1,H  10,C   5,H   7)   -114.7720         0.010000   
    162. D(C   1,H  10,C   5,H   8)    135.9068         0.010000   
    163. D(H   7,H  10,H   4,C   1)     25.9227         0.010000   
    164. D(H   8,H  10,C   0,H   2)   -145.2826         0.010000   
    165. D(C   0,H  10,C   5,H   7)    -82.9101         0.010000   
    166. D(C   0,H  10,C   5,H   8)    167.7688         0.010000   
    167. D(H   2,H  10,H   4,C   1)    -68.9939         0.010000   
    168. D(O   9,H  10,H   7,C   5)   -102.2388         0.010000   
    169. D(C   1,H  10,H   7,C   5)     42.9765         0.010000   
    170. D(C   0,H  10,H   7,C   5)     82.6089         0.010000   
    171. D(C   5,H  10,H   4,C   1)     39.7219         0.010000   
    172. D(H   8,H  10,C   0,C   1)    -26.2609         0.010000   
    173. D(H   4,H  10,H   7,C   5)     29.1187         0.010000   
    174. D(H   2,H  10,H   7,C   5)     80.7019         0.010000   
    175. D(H   3,H  10,H   4,C   1)    -28.2556         0.010000   
    176. D(C   1,H  10,H   8,C   5)    -28.3014         0.010000   
    177. D(C   1,H  10,H   8,O   9)    167.8357         0.010000   
    178. D(C   0,H  10,H   8,C   5)    -10.2652         0.010000   
    179. D(H   8,H  10,H   4,C   1)     65.3886         0.010000   
    180. D(C   1,H  10,C   0,H   3)    121.1437         0.010000   
    181. D(C   0,H  10,H   4,C   1)    -40.9423         0.010000   
    182. D(H   4,H  10,H   8,C   5)    -55.1770         0.010000   
    183. D(O   9,H  10,H   4,C   1)    132.0002         0.010000   
    184. D(C   5,H  10,H   8,O   9)   -163.8628         0.010000   
    185. D(C   1,H  10,O   9,H   8)    -17.8023         0.469806   
    186. D(C   0,H  10,O   9,H   8)     72.4030         0.469806   
    187. D(C   1,H  10,C   0,H   2)   -119.0217         0.010000   
    188. D(H   7,H  10,H   3,C   0)    -96.9926         0.010000   
    189. D(C   5,H  10,O   9,H   8)      7.0957         0.469806   
    190. D(H   2,H  10,O   9,H   8)   -159.0323         0.469806   
    191. D(H   2,H  10,H   3,C   0)     30.5569         0.010000   
    192. D(O   9,H  10,C   0,H   3)     21.1784         0.010000   
    -----------------------------------------------------------------

Number of atoms                         .... 11
Number of degrees of freedom            .... 192


         *************************************************************
         *                GEOMETRY OPTIMIZATION CYCLE   1            *
         *************************************************************
---------------------------------
CARTESIAN COORDINATES (ANGSTROEM)
---------------------------------
  C      0.000000    0.000000    0.000000
  C      0.000000    0.000000    1.340520
  H      0.923618    0.000000   -0.565407
  H     -0.928692   -0.015533   -0.561143
  H      0.952982    0.007407    1.863247
  C     -1.235980   -0.002945    2.193698
  H     -1.244748   -0.869988    2.858779
  H     -2.136892   -0.030024    1.578246
  H     -1.272976    0.890771    2.821664
  O     -0.439546    3.256058    1.028234
  H     -0.243768    2.342278    0.750565

----------------------------
CARTESIAN COORDINATES (A.U.)
----------------------------
  NO LB      ZA    FRAG     MASS         X           Y           Z
   0 C     6.0000    0    12.011    0.000000    0.000000    0.000000
   1 C     6.0000    0    12.011    0.000000    0.000000    2.533216
   2 H     1.0000    0     1.008    1.745385    0.000000   -1.068464
   3 H     1.0000    0     1.008   -1.754974   -0.029353   -1.060407
   4 H     1.0000    0     1.008    1.800875    0.013997    3.521027
   5 C     6.0000    0    12.011   -2.335664   -0.005565    4.145488
   6 H     1.0000    0     1.008   -2.352233   -1.644039    5.402309
   7 H     1.0000    0     1.008   -4.038141   -0.056737    2.982453
   8 H     1.0000    0     1.008   -2.405576    1.683313    5.332172
   9 O     8.0000    0    15.999   -0.830622    6.153058    1.943081
  10 H     1.0000    0     1.008   -0.460655    4.426264    1.418362

--------------------------------
INTERNAL COORDINATES (ANGSTROEM)
--------------------------------
 C      0   0   0     0.000000000000     0.00000000     0.00000000
 C      1   0   0     1.340520000000     0.00000000     0.00000000
 H      1   2   0     1.082938264895   121.47352700     0.00000000
 H      1   2   3     1.085168913765   121.13805841   179.04177879
 H      2   1   3     1.086955874220   118.74479534     0.44531932
 C      2   1   3     1.501854830904   124.61664624   180.13651981
 H      6   2   1     1.092782310542   110.72612409   121.97214388
 H      6   2   1     1.091401332365   111.04076117     1.40252602
 H      6   2   1     1.092903605003   110.65051418   240.92411339
 O      9   6   2     3.083111954206   106.49726801    43.15173625
 H     10   9   6     0.974896398211    60.05836956   343.15143755

---------------------------
INTERNAL COORDINATES (A.U.)
---------------------------
 C      0   0   0     0.000000000000     0.00000000     0.00000000
 C      1   0   0     2.533215677044     0.00000000     0.00000000
 H      1   2   0     2.046456740595   121.47352700     0.00000000
 H      1   2   3     2.050672056061   121.13805841   179.04177879
 H      2   1   3     2.054048921933   118.74479534     0.44531932
 C      2   1   3     2.838094323315   124.61664624   180.13651981
 H      6   2   1     2.065059290918   110.72612409   121.97214388
 H      6   2   1     2.062449620367   111.04076117     1.40252602
 H      6   2   1     2.065288504230   110.65051418   240.92411339
 O      9   6   2     5.826237233668   106.49726801    43.15173625
 H     10   9   6     1.842287201565    60.05836956   343.15143755

---------------------
BASIS SET INFORMATION
---------------------
There are 3 groups of distinct atoms

 Group   1 Type C   : 11s6p2d1f contracted to 5s3p2d1f pattern {62111/411/11/1}
 Group   2 Type H   : 5s2p1d contracted to 3s2p1d pattern {311/11/1}
 Group   3 Type O   : 11s6p2d1f contracted to 5s3p2d1f pattern {62111/411/11/1}

Atom   0C    basis set group =>   1
Atom   1C    basis set group =>   1
Atom   2H    basis set group =>   2
Atom   3H    basis set group =>   2
Atom   4H    basis set group =>   2
Atom   5C    basis set group =>   1
Atom   6H    basis set group =>   2
Atom   7H    basis set group =>   2
Atom   8H    basis set group =>   2
Atom   9O    basis set group =>   3
Atom  10H    basis set group =>   2
---------------------------------
AUXILIARY/J BASIS SET INFORMATION
---------------------------------
There are 3 groups of distinct atoms

 Group   1 Type C   : 12s5p4d2f1g contracted to 6s4p3d1f1g pattern {711111/2111/211/2/1}
 Group   2 Type H   : 5s2p1d contracted to 3s1p1d pattern {311/2/1}
 Group   3 Type O   : 12s5p4d2f1g contracted to 6s4p3d1f1g pattern {711111/2111/211/2/1}

Atom   0C    basis set group =>   1
Atom   1C    basis set group =>   1
Atom   2H    basis set group =>   2
Atom   3H    basis set group =>   2
Atom   4H    basis set group =>   2
Atom   5C    basis set group =>   1
Atom   6H    basis set group =>   2
Atom   7H    basis set group =>   2
Atom   8H    basis set group =>   2
Atom   9O    basis set group =>   3
Atom  10H    basis set group =>   2
---------------------------------
AUXILIARY/C BASIS SET INFORMATION
---------------------------------
There are 3 groups of distinct atoms

 Group   1 Type C   : 8s6p5d3f1g contracted to 8s6p4d3f1g pattern {11111111/111111/2111/111/1}
 Group   2 Type H   : 4s3p2d1f contracted to 4s3p2d1f pattern {1111/111/11/1}
 Group   3 Type O   : 8s6p5d3f1g contracted to 8s6p4d3f1g pattern {11111111/111111/2111/111/1}

Atom   0C    basis set group =>   1
Atom   1C    basis set group =>   1
Atom   2H    basis set group =>   2
Atom   3H    basis set group =>   2
Atom   4H    basis set group =>   2
Atom   5C    basis set group =>   1
Atom   6H    basis set group =>   2
Atom   7H    basis set group =>   2
Atom   8H    basis set group =>   2
Atom   9O    basis set group =>   3
Atom  10H    basis set group =>   2


           ************************************************************
           *        Program running with 8 parallel MPI-processes     *
           *              working on a common directory               *
           ************************************************************
------------------------------------------------------------------------------
                             ORCA STARTUP CALCULATIONS
                           -- RI-GTO INTEGRALS CHOSEN --
------------------------------------------------------------------------------
------------------------------------------------------------------------------
                   ___                                                        
                  /   \      - P O W E R E D   B Y -                         
                 /     \                                                     
                 |  |  |   _    _      __       _____    __    __             
                 |  |  |  | |  | |    /  \     |  _  \  |  |  /  |          
                  \  \/   | |  | |   /    \    | | | |  |  | /  /          
                 / \  \   | |__| |  /  /\  \   | |_| |  |  |/  /          
                |  |  |   |  __  | /  /__\  \  |    /   |      \           
                |  |  |   | |  | | |   __   |  |    \   |  |\   \          
                \     /   | |  | | |  |  |  |  | |\  \  |  | \   \       
                 \___/    |_|  |_| |__|  |__|  |_| \__\ |__|  \__/        
                                                                              
                      - O R C A' S   B I G   F R I E N D -                    
                                      &                                       
                       - I N T E G R A L  F E E D E R -                       
                                                                              
 v1 FN, 2020, v2 2021, v3 2022-2024                                           
------------------------------------------------------------------------------


----------------------
SHARK INTEGRAL PACKAGE
----------------------

Number of atoms                             ...     11
Number of basis functions                   ...    222
Number of shells                            ...     86
Maximum angular momentum                    ...      3
Integral batch strategy                     ... SHARK/LIBINT Hybrid
RI-J (if used) integral strategy            ... SPLIT-RIJ (Revised 2003 algorithm where possible)
Printlevel                                  ...      1
Contraction scheme used                     ... SEGMENTED contraction
Prescreening option                         ... SCHWARTZ
   Thresh                                   ... 2.500e-11
   Tcut                                     ... 2.500e-12
   Tpresel                                  ... 2.500e-12 
Coulomb Range Separation                    ... NOT USED
Exchange Range Separation                   ... NOT USED
Multipole approximations                    ... NOT USED
Finite Nucleus Model                        ... NOT USED
CABS basis                                  ... NOT available
Auxiliary Coulomb fitting basis             ... AVAILABLE
   # of basis functions in Aux-J            ...    273
   # of shells in Aux-J                     ...     95
   Maximum angular momentum in Aux-J        ...      4
Auxiliary J/K fitting basis                 ... NOT available
Auxiliary Correlation fitting basis         ... AVAILABLE
   # of basis functions in Aux-C            ...    514
   # of shells in Aux-C                     ...    158
   Maximum angular momentum in Aux-C        ...      4
Auxiliary 'external' fitting basis          ... NOT available

Checking pre-screening integrals            ... done (  0.0 sec) Dimension = 86
   => SHARK Basis and OBASIS are compatible. Storing Pre-screening
Shell pair information
Shell pair cut-off parameter TPreSel        ...   2.5e-12
Total number of shell pairs                 ...      3741
Shell pairs after pre-screening             ...      3545
Total number of primitive shell pairs       ...      9425
Primitive shell pairs kept                  ...      7334
          la=0 lb=0:    806 shell pairs
          la=1 lb=0:   1014 shell pairs
          la=1 lb=1:    340 shell pairs
          la=2 lb=0:    573 shell pairs
          la=2 lb=1:    376 shell pairs
          la=2 lb=2:    114 shell pairs
          la=3 lb=0:    153 shell pairs
          la=3 lb=1:    100 shell pairs
          la=3 lb=2:     59 shell pairs
          la=3 lb=3:     10 shell pairs

Checking whether 4 symmetric matrices of dimension 222 fit in memory
:Max Core in MB      =  10000.00
 MB in use           =      7.70
 MB left             =   9992.30
 MB needed           =      0.76
 Data fit in memory  = YES
Calculating RI/J V-Matrix + Cholesky decomp.... done (  0.0 sec)
Calculating RI/C V-Matrix + Cholesky decomp.... done (  0.0 sec)
Calculating Nuclear repulsion               ... done (  0.0 sec) ENN=    108.764699476619 Eh

Diagonalization of the overlap matrix:
Smallest eigenvalue                        ... 1.425e-04
Time for diagonalization                   ...    0.005 sec
Threshold for overlap eigenvalues          ... 1.000e-07
Number of eigenvalues below threshold      ... 0
Time for construction of square roots      ...    0.003 sec
Total time needed                          ...    0.008 sec

-------------------
DFT GRID GENERATION
-------------------

General Integration Accuracy     IntAcc      ... 4.388
Radial Grid Type                 RadialGrid  ... OptM3 with GC (2021)
Angular Grid (max. ang.)         AngularGrid ... 4 (Lebedev-302)
Angular grid pruning method      GridPruning ... 4 (adaptive)
Weight generation scheme         WeightScheme... mBecke (2022)
Basis function cutoff            BFCut       ... 1.0000e-11
Integration weight cutoff        WCut        ... 1.0000e-14
Partially contracted basis set               ... off
Rotationally invariant grid construction     ... off
Angular grids for H and He will be reduced by one unit

Total number of grid points                  ...    47035
Total number of batches                      ...      742
Average number of points per batch           ...       63
Average number of grid points per atom       ...     4276

--------------------
COSX GRID GENERATION
--------------------

GRIDX 1
-------
General Integration Accuracy     IntAcc      ... 3.816
Radial Grid Type                 RadialGrid  ... OptM3 with GC (2021)
Angular Grid (max. ang.)         AngularGrid ... 1 (Lebedev-50)
Angular grid pruning method      GridPruning ... 4 (adaptive)
Weight generation scheme         WeightScheme... mBecke (2022)
Basis function cutoff            BFCut       ... 1.0000e-11
Integration weight cutoff        WCut        ... 1.0000e-14
Partially contracted basis set               ... on
Rotationally invariant grid construction     ... off
Angular grids for H and He will be reduced by one unit

Total number of grid points                  ...     6068
Total number of batches                      ...       54
Average number of points per batch           ...      112
Average number of grid points per atom       ...      552
UseSFitting                                  ... on

GRIDX 2
-------
General Integration Accuracy     IntAcc      ... 4.020
Radial Grid Type                 RadialGrid  ... OptM3 with GC (2021)
Angular Grid (max. ang.)         AngularGrid ... 2 (Lebedev-110)
Angular grid pruning method      GridPruning ... 4 (adaptive)
Weight generation scheme         WeightScheme... mBecke (2022)
Basis function cutoff            BFCut       ... 1.0000e-11
Integration weight cutoff        WCut        ... 1.0000e-14
Partially contracted basis set               ... on
Rotationally invariant grid construction     ... off
Angular grids for H and He will be reduced by one unit

Total number of grid points                  ...    12785
Total number of batches                      ...      107
Average number of points per batch           ...      119
Average number of grid points per atom       ...     1162
UseSFitting                                  ... on

GRIDX 3
-------
General Integration Accuracy     IntAcc      ... 4.338
Radial Grid Type                 RadialGrid  ... OptM3 with GC (2021)
Angular Grid (max. ang.)         AngularGrid ... 3 (Lebedev-194)
Angular grid pruning method      GridPruning ... 4 (adaptive)
Weight generation scheme         WeightScheme... mBecke (2022)
Basis function cutoff            BFCut       ... 1.0000e-11
Integration weight cutoff        WCut        ... 1.0000e-14
Partially contracted basis set               ... on
Rotationally invariant grid construction     ... off
Angular grids for H and He will be reduced by one unit

Total number of grid points                  ...    28072
Total number of batches                      ...      224
Average number of points per batch           ...      125
Average number of grid points per atom       ...     2552
UseSFitting                                  ... on
Grids setup in   0.4 sec
Initializing property integral containers    ... done (  0.0 sec)

SHARK setup successfully completed in   0.5 seconds

Maximum memory used throughout the entire STARTUP-calculation: 17.3 MB


           ************************************************************
           *        Program running with 8 parallel MPI-processes     *
           *              working on a common directory               *
           ************************************************************
-------------------------------------------------------------------------------
                                 ORCA GUESS
                   Start orbitals & Density for SCF / CASSCF
-------------------------------------------------------------------------------

------------
SCF SETTINGS
------------
Hamiltonian:
 Density Functional     Method          .... DFT(GTOs)
 Exchange Functional    Exchange        .... PBE
   PBE kappa parameter   XKappa         ....  0.804000
   PBE mue parameter    XMuePBE         ....  0.219520
 Correlation Functional Correlation     .... P86
 LDA part of GGA corr.  LDAOpt          .... VWN-5
 Gradients option       PostSCFGGA      .... off
 Hybrid DFT is turned on
   Fraction HF Exchange ScalHFX         ....  0.690000
   Scaling of DF-GGA-X  ScalDFX         ....  0.310000
   Scaling of DF-GGA-C  ScalDFC         ....  0.422400
   Scaling of DF-LDA-C  ScalLDAC        ....  0.422400
   Perturbative correction              ....  1.000000
 RI-approximation to the Coulomb term is turned on
   Number of AuxJ basis functions       .... 273
   RIJ-COSX (HFX calculated with COS-X)).... on


General Settings:
 Integral files         IntName         .... opt
 Hartree-Fock type      HFTyp           .... UHF
 Total Charge           Charge          ....    0
 Multiplicity           Mult            ....    2
 Number of Electrons    NEL             ....   33
 Basis Dimension        Dim             ....  222
 Nuclear Repulsion      ENuc            ....    108.7646994766 Eh

Convergence Acceleration:
 AO-DIIS                CNVDIIS         .... on
   Start iteration      DIISMaxIt       ....    12
   Startup error        DIISStart       ....  0.200000
   # of expansion vecs  DIISMaxEq       ....     5
   Bias factor          DIISBfac        ....   1.050
   Max. coefficient     DIISMaxC        ....  10.000
 MO-DIIS                CNVKDIIS        .... off
 Trust-Rad. Augm. Hess. CNVTRAH         .... auto
   Auto Start mean grad. ratio tolernc. ....  1.125000
   Auto Start start iteration           ....    50
   Auto Start num. interpolation iter.  ....    10
   Max. Number of Micro iterations      ....    24
   Max. Number of Macro iterations      .... Maxiter - #DIIS iter
   Number of Davidson start vectors     ....     2
   Converg. threshold    (grad. norm)   ....   1.000e-05
   Grad. Scal. Fac. for Micro threshold ....   0.100
   Minimum threshold for Micro iter.    ....   1.000e-02
   NR start threshold (gradient norm)   ....   1.000e-04
   Initial trust radius                 ....   0.400
   Minimum AH scaling param. (alpha)    ....   1.000
   Maximum AH scaling param. (alpha)    .... 1000.000
   Quad. conv. algorithm                .... NR
   White noise on init. David. guess    .... on
   Maximum white noise                  ....   0.010
   Pseudo random numbers                .... off
   Inactive MOs                         .... canonical
   Orbital update algorithm             .... Taylor
   Preconditioner                       .... Diag
   Full preconditioner red. dimension   ....   250
 SOSCF                 CNVSOSCF           .... on
   Start iteration     SOSCFMaxIt         ....   150
   Startup grad/error  SOSCFStart         ....  0.003300
   Hessian update      SOSCFHessUp        .... L-BFGS
   Autom. constraints  SOSCFAutoConstrain .... off
 Level Shifting         CNVShift        .... on
   Level shift para.    LevelShift      ....    0.2500
   Turn off err/grad.   ShiftErr        ....    0.0010
 Zerner damping         CNVZerner       .... off
 Static damping         CNVDamp         .... on
   Fraction old density DampFac         ....    0.7000
   Max. Damping (<1)    DampMax         ....    0.9800
   Min. Damping (>=0)   DampMin         ....    0.0000
   Turn off err/grad.   DampErr         ....    0.1000

SCF Procedure:
 Maximum # iterations   MaxIter         ....   125
 SCF integral mode      SCFMode         .... Direct
   Integral package                     .... SHARK and LIBINT hybrid scheme
 Reset frequency        DirectResetFreq ....    20
 Integral Threshold     Thresh          ....  2.500e-11 Eh
 Primitive CutOff       TCut            ....  2.500e-12 Eh

Convergence Tolerance:
 Convergence Check Mode ConvCheckMode   .... Total+1el-Energy
 Convergence forced     ConvForced      .... 0
 Energy Change          TolE            ....  1.000e-08 Eh
 1-El. energy change                    ....  1.000e-05 Eh
 Orbital Gradient       TolG            ....  1.000e-05
 Orbital Rotation angle TolX            ....  1.000e-05
 DIIS Error             TolErr          ....  5.000e-07

------------------------------
INITIAL GUESS: MODEL POTENTIAL
------------------------------
Loading Hartree-Fock densities                     ... done
Calculating cut-offs                               ... done
Initializing the effective Hamiltonian             ... done
Setting up the integral package (SHARK)            ... done
Starting the Coulomb interaction                   ... done (   0.1 sec)
Making the grid                                    ... done (   0.1 sec)
Mapping shells                                     ... done
Starting the XC term evaluation                    ... done (   0.0 sec)
  promolecular density results
     # of electrons  =     32.998459090
     EX              =    -25.437632114
     EC              =      0.042398727
     EX+EC           =    -25.395233387
Transforming the Hamiltonian                       ... done (   0.0 sec)
Diagonalizing the Hamiltonian                      ... done (   0.1 sec)
Back transforming the eigenvectors                 ... done (   0.0 sec)
Now organizing SCF variables                       ... done
                      ------------------
                      INITIAL GUESS DONE (   0.3 sec)
                      ------------------
             **** ENERGY FILE WAS UPDATED (opt.en.tmp) ****
Finished Guess after   0.8 sec
Maximum memory used throughout the entire GUESS-calculation: 12.4 MB


           ************************************************************
           *        Program running with 8 parallel MPI-processes     *
           *              working on a common directory               *
           ************************************************************

-------------------------------------------------------------------------------------------
                                      ORCA LEAN-SCF
                              memory conserving SCF solver
-------------------------------------------------------------------------------------------

----------------------------------------D-I-I-S--------------------------------------------
Iteration    Energy (Eh)           Delta-E    RMSDP     MaxDP     DIISErr   Damp  Time(sec)
-------------------------------------------------------------------------------------------
               ***  Starting incremental Fock matrix formation  ***
    1    -192.5438177460491715     0.00e+00  5.32e-03  1.43e-01  2.39e-01  0.700   0.7
Warning: op=1 Small HOMO/LUMO gap (   0.043) - skipping pre-diagonalization
         Will do a full diagonalization
    2    -192.6893801158427664    -1.46e-01  2.85e-03  6.26e-02  9.74e-02  0.700   0.5
                               ***Turning on AO-DIIS***
    3    -192.7517917750615197    -6.24e-02  1.19e-03  2.29e-02  3.06e-02  0.700   0.4
    4    -192.7958560235553591    -4.41e-02  4.60e-03  1.21e-01  3.38e-02  0.000   0.4
    5    -192.9484887817229151    -1.53e-01  2.50e-03  4.93e-02  5.73e-02  0.000   0.4
    6    -192.9720607641582433    -2.36e-02  1.56e-03  2.45e-02  2.63e-02  0.000   0.4
    7    -192.9818003358379315    -9.74e-03  6.45e-04  8.06e-03  1.30e-02  0.000   0.4
    8    -192.9843908057783892    -2.59e-03  5.66e-04  7.56e-03  7.50e-03  0.000   0.4
    9    -192.9857926813147060    -1.40e-03  2.70e-04  4.89e-03  5.09e-03  0.000   0.4
   10    -192.9862506631105248    -4.58e-04  1.85e-04  3.09e-03  3.70e-03  0.000   0.4
                              *** Initializing SOSCF ***
---------------------------------------S-O-S-C-F--------------------------------------
Iteration    Energy (Eh)           Delta-E    RMSDP     MaxDP     MaxGrad    Time(sec)
--------------------------------------------------------------------------------------
   11    -192.9864818876220625    -2.31e-04  1.22e-04  1.81e-03  2.43e-03     0.4
               *** Restarting incremental Fock matrix formation ***
   12    -192.9865742250711378    -9.23e-05  6.32e-05  8.85e-04  2.04e-03     0.6
   13    -192.9865995880891774    -2.54e-05  1.34e-04  1.61e-03  1.45e-03     0.5
   14    -192.9866303953987199    -3.08e-05  4.23e-05  5.71e-04  6.44e-04     0.5
   15    -192.9866369265475896    -6.53e-06  3.51e-05  5.04e-04  4.97e-04     0.5
   16    -192.9866406763780446    -3.75e-06  3.25e-05  5.29e-04  2.86e-04     0.5
   17    -192.9866430677524818    -2.39e-06  3.10e-05  5.44e-04  2.32e-04     0.5
   18    -192.9866450300680754    -1.96e-06  3.83e-05  5.86e-04  2.59e-04     0.5
   19    -192.9866467221598327    -1.69e-06  1.34e-05  1.66e-04  1.43e-04     0.5
   20    -192.9866470815923094    -3.59e-07  5.97e-06  1.18e-04  1.05e-04     0.5
   21    -192.9866472028113549    -1.21e-07  9.01e-06  2.26e-04  1.05e-04     0.5
   22    -192.9866473889273948    -1.86e-07  2.27e-05  6.23e-04  1.05e-04     0.5
   23    -192.9866478326703145    -4.44e-07  5.90e-05  1.62e-03  1.17e-04     0.5
   24    -192.9866489126677038    -1.08e-06  1.52e-04  4.13e-03  1.57e-04     0.5
   25    -192.9866515388720813    -2.63e-06  3.75e-04  1.00e-02  1.88e-04     0.5
   26    -192.9866576314770441    -6.09e-06  6.97e-04  1.77e-02  3.98e-04     0.5
   27    -192.9866666788943803    -9.05e-06  3.57e-04  8.35e-03  1.36e-03     0.5
   28    -192.9866808471630293    -1.42e-05  9.78e-04  2.12e-02  1.35e-03     0.5
   29    -192.9867207225449874    -3.99e-05  4.83e-04  1.24e-02  7.20e-04     0.6
   30    -192.9867232947595994    -2.57e-06  2.63e-04  6.98e-03  1.68e-03     0.5
   31    -192.9867374626991250    -1.42e-05  4.21e-04  1.21e-02  8.22e-04     0.5
               *** Restarting incremental Fock matrix formation ***
   32    -192.9867449887991597    -7.53e-06  6.70e-04  2.03e-02  6.19e-04     0.6
   33    -192.9867517067316953    -6.72e-06  8.21e-05  2.35e-03  1.20e-03     0.5
   34    -192.9867529742970191    -1.27e-06  1.86e-04  5.74e-03  6.78e-04     0.5
   35    -192.9867558691906879    -2.89e-06  2.20e-04  6.83e-03  2.16e-04     0.5
   36    -192.9867567683823495    -8.99e-07  7.98e-05  2.47e-03  3.80e-04     0.5
   37    -192.9867572618497888    -4.93e-07  1.38e-04  4.27e-03  1.72e-04     0.5
   38    -192.9867575419206105    -2.80e-07  4.73e-05  1.45e-03  8.82e-05     0.5
   39    -192.9867575920389413    -5.01e-08  2.62e-05  8.09e-04  1.10e-05     0.5
   40    -192.9867575876187971     4.42e-09  4.29e-06  1.30e-04  7.59e-06     0.5
                 **** Energy Check signals convergence ****

               *****************************************************
               *                     SUCCESS                       *
               *           SCF CONVERGED AFTER  40 CYCLES          *
               *****************************************************

Recomputing exchange energy using gridx3       ... done (    0.784 sec)
Old exchange energy                            :    -18.093241536 Eh
New exchange energy                            :    -18.093162323 Eh
Exchange energy change after final integration :      0.000079212 Eh
Total energy after final integration           :   -192.986678378 Eh
             **** ENERGY FILE WAS UPDATED (opt.en.tmp) ****

----------------
TOTAL SCF ENERGY
----------------

Total Energy       :       -192.98667837825283 Eh           -5251.43450 eV

Components:
Nuclear Repulsion  :        108.76469947661916 Eh            2959.63794 eV
Electronic Energy  :       -301.75145706695417 Eh           -8211.07459 eV
One Electron Energy:       -476.48476938804339 Eh          -12965.80974 eV
Two Electron Energy:        174.73331232108922 Eh            4754.73515 eV

Virial components:
Potential Energy   :       -385.45332463160730 Eh          -10488.71820 eV
Kinetic Energy     :        192.46664625335450 Eh            5237.28370 eV
Virial Ratio       :          2.00270193373772

DFT components:
N(Alpha)           :       17.000005578543 electrons
N(Beta)            :       16.000005876438 electrons
N(Total)           :       33.000011454980 electrons
E(X)               :       -8.087459363056 Eh       
E(C)               :       -0.485485306124 Eh       
E(XC)              :       -8.572944669180 Eh       

---------------
SCF CONVERGENCE
---------------

  Last Energy change         ...   -4.4201e-09  Tolerance :   1.0000e-08
  Last MAX-Density change    ...    1.2955e-04  Tolerance :   1.0000e-07
  Last RMS-Density change    ...    4.2876e-06  Tolerance :   5.0000e-09
  Last DIIS Error            ...    2.4324e-03  Tolerance :   5.0000e-07
  Last Orbital Gradient      ...    7.5905e-06  Tolerance :   1.0000e-05
  Last Orbital Rotation      ...    6.0058e-04  Tolerance :   1.0000e-05


----------------------
UHF SPIN CONTAMINATION
----------------------

Warning: in a DFT calculation there is little theoretical justification to 
         calculate <S**2> as in Hartree-Fock theory. We will do it anyways
         but you should keep in mind that the values have only limited relevance

Expectation value of <S**2>     :     0.754587
Ideal value S*(S+1) for S=0.5   :     0.750000
Deviation                       :     0.004587

----------------
ORBITAL ENERGIES
----------------
                 SPIN UP ORBITALS
  NO   OCC          E(Eh)            E(eV) 
   0   1.0000     -20.057939      -545.8043 
   1   1.0000     -10.840894      -294.9957 
   2   1.0000     -10.823512      -294.5227 
   3   1.0000     -10.819540      -294.4147 
   4   1.0000      -1.229172       -33.4475 
   5   1.0000      -0.977433       -26.5973 
   6   1.0000      -0.854947       -23.2643 
   7   1.0000      -0.698664       -19.0116 
   8   1.0000      -0.592668       -16.1273 
   9   1.0000      -0.589327       -16.0364 
  10   1.0000      -0.550876       -14.9901 
  11   1.0000      -0.538002       -14.6398 
  12   1.0000      -0.522353       -14.2140 
  13   1.0000      -0.479546       -13.0491 
  14   1.0000      -0.461056       -12.5460 
  15   1.0000      -0.453616       -12.3435 
  16   1.0000      -0.344105        -9.3636 
  17   0.0000       0.075089         2.0433 
  18   0.0000       0.099713         2.7133 
  19   0.0000       0.135116         3.6767 
  20   0.0000       0.140452         3.8219 
  21   0.0000       0.165982         4.5166 
  22   0.0000       0.174186         4.7398 
  23   0.0000       0.179914         4.8957 
  24   0.0000       0.207351         5.6423 
  25   0.0000       0.229867         6.2550 
  26   0.0000       0.262352         7.1390 
  27   0.0000       0.266660         7.2562 

                 SPIN DOWN ORBITALS
  NO   OCC          E(Eh)            E(eV) 
   0   1.0000     -20.023813      -544.8756 
   1   1.0000     -10.840919      -294.9964 
   2   1.0000     -10.823559      -294.5240 
   3   1.0000     -10.819537      -294.4146 
   4   1.0000      -1.105483       -30.0817 
   5   1.0000      -0.977384       -26.5960 
   6   1.0000      -0.854990       -23.2655 
   7   1.0000      -0.698699       -19.0126 
   8   1.0000      -0.591531       -16.0964 
   9   1.0000      -0.556178       -15.1344 
  10   1.0000      -0.538035       -14.6407 
  11   1.0000      -0.520956       -14.1759 
  12   1.0000      -0.479519       -13.0484 
  13   1.0000      -0.453626       -12.3438 
  14   1.0000      -0.423067       -11.5122 
  15   1.0000      -0.343594        -9.3497 
  16   0.0000       0.010051         0.2735 
  17   0.0000       0.075378         2.0511 
  18   0.0000       0.101418         2.7597 
  19   0.0000       0.135816         3.6957 
  20   0.0000       0.140942         3.8352 
  21   0.0000       0.170715         4.6454 
  22   0.0000       0.174925         4.7600 
  23   0.0000       0.181112         4.9283 
  24   0.0000       0.208582         5.6758 
  25   0.0000       0.230813         6.2807 
  26   0.0000       0.262366         7.1393 
*Only the first 10 virtual orbitals were printed.

                    ********************************
                    * MULLIKEN POPULATION ANALYSIS *
                    ********************************

--------------------------------------------
MULLIKEN ATOMIC CHARGES AND SPIN POPULATIONS
--------------------------------------------
   0 C :   -0.263923   -0.002402
   1 C :   -0.124915   -0.001981
   2 H :    0.111051    0.000155
   3 H :    0.101046    0.000102
   4 H :    0.113073    0.000203
   5 C :   -0.198521    0.002415
   6 H :    0.093587    0.000298
   7 H :    0.082576   -0.000034
   8 H :    0.095107   -0.001287
   9 O :   -0.267429    1.028799
  10 H :    0.258348   -0.026268
Sum of atomic charges         :    0.0000000
Sum of atomic spin populations:    1.0000000

-----------------------------------------------------
MULLIKEN REDUCED ORBITAL CHARGES AND SPIN POPULATIONS
-----------------------------------------------------
CHARGE
  0 C s       :     3.173369  s :     3.173369
      pz      :     0.946757  p :     3.006928
      px      :     1.056984
      py      :     1.003187
      dz2     :     0.014069  d :     0.078539
      dxz     :     0.040268
      dyz     :     0.017249
      dx2y2   :     0.006989
      dxy     :    -0.000036
      f0      :     0.000812  f :     0.005087
      f+1     :     0.001439
      f-1     :     0.001651
      f+2     :     0.000639
      f-2     :     0.000009
      f+3     :     0.000508
      f-3     :     0.000028

  1 C s       :     3.174314  s :     3.174314
      pz      :     0.944782  p :     2.824441
      px      :     0.968588
      py      :     0.911070
      dz2     :     0.022990  d :     0.118915
      dxz     :     0.047102
      dyz     :     0.029099
      dx2y2   :     0.013223
      dxy     :     0.006502
      f0      :     0.001031  f :     0.007246
      f+1     :     0.002098
      f-1     :     0.001649
      f+2     :     0.000937
      f-2     :     0.000479
      f+3     :     0.000721
      f-3     :     0.000331

  2 H s       :     0.847881  s :     0.847881
      pz      :     0.010969  p :     0.039149
      px      :     0.017096
      py      :     0.011084
      dz2     :     0.000441  d :     0.001919
      dxz     :     0.000470
      dyz     :     0.000273
      dx2y2   :     0.000332
      dxy     :     0.000402

  3 H s       :     0.856723  s :     0.856723
      pz      :     0.012406  p :     0.040265
      px      :     0.017366
      py      :     0.010494
      dz2     :     0.000455  d :     0.001966
      dxz     :     0.000523
      dyz     :     0.000252
      dx2y2   :     0.000342
      dxy     :     0.000394

  4 H s       :     0.847028  s :     0.847028
      pz      :     0.009323  p :     0.037862
      px      :     0.019116
      py      :     0.009423
      dz2     :     0.000489  d :     0.002037
      dxz     :     0.000522
      dyz     :     0.000217
      dx2y2   :     0.000411
      dxy     :     0.000398

  5 C s       :     3.144571  s :     3.144571
      pz      :     1.005429  p :     2.973553
      px      :     0.916095
      py      :     1.052028
      dz2     :     0.005788  d :     0.076781
      dxz     :     0.017156
      dyz     :     0.025550
      dx2y2   :     0.021191
      dxy     :     0.007095
      f0      :     0.000380  f :     0.003616
      f+1     :     0.000643
      f-1     :     0.000131
      f+2     :     0.001424
      f-2     :     0.000419
      f+3     :     0.000333
      f-3     :     0.000287

  6 H s       :     0.868044  s :     0.868044
      pz      :     0.012157  p :     0.036444
      px      :     0.008508
      py      :     0.015779
      dz2     :     0.000440  d :     0.001925
      dxz     :     0.000321
      dyz     :     0.000427
      dx2y2   :     0.000360
      dxy     :     0.000378

  7 H s       :     0.880271  s :     0.880271
      pz      :     0.012128  p :     0.035217
      px      :     0.014609
      py      :     0.008479
      dz2     :     0.000437  d :     0.001936
      dxz     :     0.000479
      dyz     :     0.000240
      dx2y2   :     0.000380
      dxy     :     0.000400

  8 H s       :     0.865848  s :     0.865848
      pz      :     0.012004  p :     0.037127
      px      :     0.008315
      py      :     0.016807
      dz2     :     0.000397  d :     0.001918
      dxz     :     0.000293
      dyz     :     0.000453
      dx2y2   :     0.000371
      dxy     :     0.000403

  9 O s       :     3.896607  s :     3.896607
      pz      :     1.907993  p :     4.359204
      px      :     1.008064
      py      :     1.443147
      dz2     :     0.001611  d :     0.011240
      dxz     :     0.000170
      dyz     :     0.002655
      dx2y2   :     0.005210
      dxy     :     0.001593
      f0      :     0.000116  f :     0.000378
      f+1     :     0.000045
      f-1     :     0.000108
      f+2     :     0.000066
      f-2     :     0.000020
      f+3     :     0.000005
      f-3     :     0.000017

 10 H s       :     0.650705  s :     0.650705
      pz      :     0.031832  p :     0.083257
      px      :     0.013474
      py      :     0.037951
      dz2     :     0.001218  d :     0.007690
      dxz     :     0.000226
      dyz     :     0.002849
      dx2y2   :     0.002055
      dxy     :     0.001343


SPIN
  0 C s       :    -0.001049  s :    -0.001049
      pz      :    -0.000083  p :    -0.001310
      px      :     0.000067
      py      :    -0.001293
      dz2     :    -0.000044  d :    -0.000041
      dxz     :    -0.000003
      dyz     :    -0.000003
      dx2y2   :     0.000007
      dxy     :     0.000002
      f0      :    -0.000000  f :    -0.000003
      f+1     :    -0.000000
      f-1     :    -0.000004
      f+2     :     0.000001
      f-2     :     0.000000
      f+3     :     0.000001
      f-3     :    -0.000000

  1 C s       :    -0.000887  s :    -0.000887
      pz      :     0.000190  p :    -0.001031
      px      :    -0.000461
      py      :    -0.000760
      dz2     :    -0.000018  d :    -0.000056
      dxz     :    -0.000004
      dyz     :    -0.000015
      dx2y2   :    -0.000012
      dxy     :    -0.000008
      f0      :     0.000000  f :    -0.000007
      f+1     :    -0.000000
      f-1     :    -0.000007
      f+2     :    -0.000000
      f-2     :     0.000000
      f+3     :     0.000001
      f-3     :    -0.000001

  2 H s       :     0.000173  s :     0.000173
      pz      :     0.000001  p :    -0.000016
      px      :     0.000003
      py      :    -0.000020
      dz2     :    -0.000000  d :    -0.000002
      dxz     :    -0.000000
      dyz     :    -0.000001
      dx2y2   :     0.000000
      dxy     :    -0.000001

  3 H s       :     0.000121  s :     0.000121
      pz      :    -0.000001  p :    -0.000017
      px      :    -0.000004
      py      :    -0.000013
      dz2     :    -0.000000  d :    -0.000002
      dxz     :    -0.000000
      dyz     :    -0.000001
      dx2y2   :    -0.000000
      dxy     :    -0.000001

  4 H s       :     0.000208  s :     0.000208
      pz      :    -0.000000  p :    -0.000004
      px      :     0.000000
      py      :    -0.000003
      dz2     :    -0.000000  d :    -0.000001
      dxz     :    -0.000000
      dyz     :    -0.000000
      dx2y2   :    -0.000000
      dxy     :    -0.000000

  5 C s       :     0.001418  s :     0.001418
      pz      :     0.000177  p :     0.001002
      px      :     0.000115
      py      :     0.000709
      dz2     :     0.000002  d :    -0.000005
      dxz     :    -0.000003
      dyz     :     0.000018
      dx2y2   :    -0.000020
      dxy     :    -0.000002
      f0      :     0.000000  f :     0.000001
      f+1     :    -0.000000
      f-1     :    -0.000000
      f+2     :     0.000001
      f-2     :    -0.000000
      f+3     :     0.000000
      f-3     :     0.000000

  6 H s       :     0.000300  s :     0.000300
      pz      :     0.000003  p :    -0.000002
      px      :     0.000000
      py      :    -0.000006
      dz2     :     0.000000  d :     0.000000
      dxz     :     0.000000
      dyz     :     0.000000
      dx2y2   :     0.000000
      dxy     :     0.000000

  7 H s       :    -0.000038  s :    -0.000038
      pz      :    -0.000003  p :     0.000004
      px      :    -0.000000
      py      :     0.000007
      dz2     :    -0.000000  d :     0.000000
      dxz     :    -0.000000
      dyz     :     0.000000
      dx2y2   :     0.000000
      dxy     :     0.000000

  8 H s       :    -0.001254  s :    -0.001254
      pz      :    -0.000019  p :    -0.000033
      px      :    -0.000002
      py      :    -0.000012
      dz2     :    -0.000000  d :     0.000000
      dxz     :    -0.000000
      dyz     :    -0.000000
      dx2y2   :     0.000000
      dxy     :     0.000000

  9 O s       :     0.025345  s :     0.025345
      pz      :     0.005139  p :     1.003286
      px      :     0.939277
      py      :     0.058871
      dz2     :     0.000187  d :     0.000333
      dxz     :     0.000058
      dyz     :     0.000047
      dx2y2   :    -0.000407
      dxy     :     0.000448
      f0      :     0.000073  f :    -0.000166
      f+1     :     0.000042
      f-1     :     0.000047
      f+2     :    -0.000059
      f-2     :    -0.000004
      f+3     :    -0.000097
      f-3     :    -0.000168

 10 H s       :    -0.034988  s :    -0.034988
      pz      :    -0.002102  p :     0.007615
      px      :     0.011437
      py      :    -0.001720
      dz2     :     0.000070  d :     0.001106
      dxz     :     0.000096
      dyz     :    -0.000063
      dx2y2   :     0.000080
      dxy     :     0.000923



                     *******************************
                     * LOEWDIN POPULATION ANALYSIS *
                     *******************************

-------------------------------------------
LOEWDIN ATOMIC CHARGES AND SPIN POPULATIONS
-------------------------------------------
   0 C :   -0.000859   -0.001388
   1 C :   -0.036782   -0.000957
   2 H :   -0.001212   -0.000085
   3 H :   -0.000878   -0.000077
   4 H :    0.012320   -0.000046
   5 C :    0.002463    0.000169
   6 H :    0.016098    0.000111
   7 H :    0.017185    0.000018
   8 H :    0.017185   -0.000143
   9 O :    0.147198    0.953482
  10 H :   -0.172718    0.048915

----------------------------------------------------
LOEWDIN REDUCED ORBITAL CHARGES AND SPIN POPULATIONS
----------------------------------------------------
CHARGE
  0 C s       :     2.765744  s :     2.765744
      pz      :     1.047894  p :     2.935802
      px      :     1.007346
      py      :     0.880562
      dz2     :     0.063385  d :     0.272228
      dxz     :     0.146990
      dyz     :     0.039726
      dx2y2   :     0.022053
      dxy     :     0.000075
      f0      :     0.007547  f :     0.027085
      f+1     :     0.009595
      f-1     :     0.004984
      f+2     :     0.002858
      f-2     :     0.000012
      f+3     :     0.001630
      f-3     :     0.000458

  1 C s       :     2.751809  s :     2.751809
      pz      :     1.056836  p :     2.841633
      px      :     0.980052
      py      :     0.804745
      dz2     :     0.095730  d :     0.404220
      dxz     :     0.161645
      dyz     :     0.078012
      dx2y2   :     0.042923
      dxy     :     0.025910
      f0      :     0.007571  f :     0.039120
      f+1     :     0.014529
      f-1     :     0.005304
      f+2     :     0.003541
      f-2     :     0.003189
      f+3     :     0.002728
      f-3     :     0.002258

  2 H s       :     0.821208  s :     0.821208
      pz      :     0.042797  p :     0.152383
      px      :     0.065566
      py      :     0.044020
      dz2     :     0.005532  d :     0.027621
      dxz     :     0.007956
      dyz     :     0.002724
      dx2y2   :     0.005826
      dxy     :     0.005582

  3 H s       :     0.821935  s :     0.821935
      pz      :     0.041863  p :     0.151218
      px      :     0.066307
      py      :     0.043048
      dz2     :     0.005506  d :     0.027725
      dxz     :     0.008072
      dyz     :     0.002651
      dx2y2   :     0.005833
      dxy     :     0.005662

  4 H s       :     0.811342  s :     0.811342
      pz      :     0.042429  p :     0.148668
      px      :     0.068236
      py      :     0.038003
      dz2     :     0.005388  d :     0.027670
      dxz     :     0.008278
      dyz     :     0.002238
      dx2y2   :     0.006381
      dxy     :     0.005385

  5 C s       :     2.701020  s :     2.701020
      pz      :     0.987715  p :     2.970208
      px      :     0.970032
      py      :     1.012461
      dz2     :     0.024178  d :     0.296649
      dxz     :     0.081482
      dyz     :     0.086336
      dx2y2   :     0.082535
      dxy     :     0.022119
      f0      :     0.005438  f :     0.029660
      f+1     :     0.005490
      f-1     :     0.002055
      f+2     :     0.006291
      f-2     :     0.002529
      f+3     :     0.003937
      f-3     :     0.003920

  6 H s       :     0.808325  s :     0.808325
      pz      :     0.050621  p :     0.147074
      px      :     0.037822
      py      :     0.058631
      dz2     :     0.006256  d :     0.028503
      dxz     :     0.004055
      dyz     :     0.007444
      dx2y2   :     0.005481
      dxy     :     0.005267

  7 H s       :     0.810352  s :     0.810352
      pz      :     0.046645  p :     0.143730
      px      :     0.058158
      py      :     0.038927
      dz2     :     0.005687  d :     0.028732
      dxz     :     0.007495
      dyz     :     0.003727
      dx2y2   :     0.005828
      dxy     :     0.005995

  8 H s       :     0.806203  s :     0.806203
      pz      :     0.049651  p :     0.148069
      px      :     0.037863
      py      :     0.060555
      dz2     :     0.005845  d :     0.028543
      dxz     :     0.003689
      dyz     :     0.007637
      dx2y2   :     0.005685
      dxy     :     0.005687

  9 O s       :     3.550678  s :     3.550678
      pz      :     1.816721  p :     4.283319
      px      :     0.959661
      py      :     1.506936
      dz2     :     0.002510  d :     0.017291
      dxz     :     0.000176
      dyz     :     0.003568
      dx2y2   :     0.009082
      dxy     :     0.001954
      f0      :     0.000157  f :     0.001514
      f+1     :     0.000023
      f-1     :     0.000241
      f+2     :     0.000325
      f-2     :     0.000089
      f+3     :     0.000329
      f-3     :     0.000350

 10 H s       :     0.712182  s :     0.712182
      pz      :     0.118737  p :     0.369625
      px      :     0.055499
      py      :     0.195388
      dz2     :     0.013274  d :     0.090912
      dxz     :     0.003032
      dyz     :     0.032681
      dx2y2   :     0.022671
      dxy     :     0.019255


SPIN
  0 C s       :    -0.000158  s :    -0.000158
      pz      :    -0.000061  p :    -0.001139
      px      :     0.000006
      py      :    -0.001083
      dz2     :    -0.000033  d :    -0.000083
      dxz     :     0.000005
      dyz     :    -0.000010
      dx2y2   :    -0.000045
      dxy     :    -0.000000
      f0      :    -0.000001  f :    -0.000009
      f+1     :    -0.000000
      f-1     :    -0.000010
      f+2     :     0.000001
      f-2     :     0.000000
      f+3     :     0.000001
      f-3     :    -0.000000

  1 C s       :    -0.000145  s :    -0.000145
      pz      :    -0.000037  p :    -0.000568
      px      :     0.000041
      py      :    -0.000572
      dz2     :    -0.000054  d :    -0.000220
      dxz     :    -0.000003
      dyz     :    -0.000063
      dx2y2   :    -0.000083
      dxy     :    -0.000017
      f0      :    -0.000002  f :    -0.000024
      f+1     :    -0.000001
      f-1     :    -0.000023
      f+2     :     0.000000
      f-2     :     0.000001
      f+3     :     0.000001
      f-3     :    -0.000000

  2 H s       :     0.000047  s :     0.000047
      pz      :    -0.000005  p :    -0.000108
      px      :    -0.000013
      py      :    -0.000090
      dz2     :    -0.000000  d :    -0.000023
      dxz     :    -0.000002
      dyz     :    -0.000006
      dx2y2   :    -0.000001
      dxy     :    -0.000014

  3 H s       :     0.000026  s :     0.000026
      pz      :    -0.000004  p :    -0.000081
      px      :    -0.000012
      py      :    -0.000065
      dz2     :    -0.000000  d :    -0.000022
      dxz     :    -0.000001
      dyz     :    -0.000005
      dx2y2   :    -0.000001
      dxy     :    -0.000014

  4 H s       :     0.000008  s :     0.000008
      pz      :    -0.000001  p :    -0.000043
      px      :    -0.000008
      py      :    -0.000034
      dz2     :    -0.000000  d :    -0.000012
      dxz     :    -0.000001
      dyz     :    -0.000003
      dx2y2   :    -0.000001
      dxy     :    -0.000007

  5 C s       :     0.000013  s :     0.000013
      pz      :     0.000004  p :     0.000115
      px      :    -0.000003
      py      :     0.000115
      dz2     :     0.000000  d :     0.000047
      dxz     :    -0.000003
      dyz     :     0.000074
      dx2y2   :    -0.000007
      dxy     :    -0.000017
      f0      :     0.000000  f :    -0.000006
      f+1     :    -0.000000
      f-1     :    -0.000000
      f+2     :     0.000000
      f-2     :    -0.000003
      f+3     :    -0.000000
      f-3     :    -0.000003

  6 H s       :     0.000114  s :     0.000114
      pz      :    -0.000003  p :    -0.000003
      px      :     0.000001
      py      :    -0.000001
      dz2     :     0.000000  d :    -0.000000
      dxz     :     0.000000
      dyz     :    -0.000000
      dx2y2   :    -0.000000
      dxy     :     0.000000

  7 H s       :     0.000031  s :     0.000031
      pz      :     0.000000  p :    -0.000016
      px      :     0.000001
      py      :    -0.000016
      dz2     :     0.000000  d :     0.000003
      dxz     :     0.000000
      dyz     :     0.000002
      dx2y2   :     0.000000
      dxy     :     0.000001

  8 H s       :    -0.000096  s :    -0.000096
      pz      :    -0.000004  p :    -0.000049
      px      :    -0.000002
      py      :    -0.000043
      dz2     :    -0.000000  d :     0.000003
      dxz     :     0.000000
      dyz     :     0.000004
      dx2y2   :    -0.000000
      dxy     :    -0.000001

  9 O s       :     0.009792  s :     0.009792
[...]
      dxz     :     0.000000
      dyz     :    -0.000000
      dx2y2   :    -0.000000
      dxy     :    -0.000002
  4 H s       :     0.000032  s :     0.000032
      pz      :    -0.000005  p :    -0.000102
      px      :    -0.000012
      py      :    -0.000085
      dz2     :    -0.000000  d :    -0.000021
      dxz     :    -0.000001
      dyz     :    -0.000005
      dx2y2   :    -0.000001
      dxy     :    -0.000013
  5 C s       :     0.000026  s :     0.000026
      pz      :     0.000027  p :     0.000203
      px      :     0.000011
      py      :     0.000165
      dz2     :    -0.000001  d :    -0.000045
      dxz     :    -0.000007
      dyz     :     0.000026
      dx2y2   :    -0.000012
      dxy     :    -0.000050
      f0      :    -0.000000  f :    -0.000013
      f+1     :    -0.000000
      f-1     :    -0.000000
      f+2     :    -0.000000
      f-2     :    -0.000006
      f+3     :    -0.000000
      f-3     :    -0.000006
  6 H s       :     0.000082  s :     0.000082
      pz      :    -0.000001  p :    -0.000002
      px      :     0.000000
      py      :    -0.000001
      dz2     :     0.000000  d :     0.000001
      dxz     :     0.000000
      dyz     :     0.000000
      dx2y2   :    -0.000000
      dxy     :     0.000000
  7 H s       :     0.000034  s :     0.000034
      pz      :     0.000001  p :    -0.000013
      px      :     0.000003
      py      :    -0.000017
      dz2     :     0.000000  d :     0.000004
      dxz     :     0.000000
      dyz     :     0.000002
      dx2y2   :     0.000001
      dxy     :     0.000001
  8 H s       :    -0.000150  s :    -0.000150
      pz      :    -0.000002  p :    -0.000059
      px      :    -0.000004
      py      :    -0.000053
      dz2     :     0.000000  d :     0.000004
      dxz     :     0.000000
      dyz     :     0.000005
      dx2y2   :    -0.000000
      dxy     :    -0.000000
  9 O s       :     0.010032  s :     0.010032
      pz      :     0.004650  p :     0.936060
      px      :     0.882144
      py      :     0.049266
      dz2     :    -0.000087  d :     0.001991
      dxz     :     0.000752
      dyz     :    -0.000307
      dx2y2   :     0.000793
      dxy     :     0.000840
      f0      :     0.000004  f :     0.000401
      f+1     :     0.000045
      f-1     :     0.000014
      f+2     :     0.000074
      f-2     :     0.000065
      f+3     :     0.000169
      f-3     :     0.000032
 10 H s       :    -0.018911  s :    -0.018911
      pz      :    -0.002930  p :     0.050903
      px      :     0.047814
      py      :     0.006019
      dz2     :     0.000632  d :     0.021526
      dxz     :     0.001600
      dyz     :     0.000841
      dx2y2   :     0.003518
      dxy     :     0.014936


                      *****************************
                      * MAYER POPULATION ANALYSIS *
                      *****************************

  NA   - Mulliken gross atomic population
  ZA   - Total nuclear charge
  QA   - Mulliken gross atomic charge
  VA   - Mayer's total valence
  BVA  - Mayer's bonded valence
  FA   - Mayer's free valence

  ATOM       NA         ZA         QA         VA         BVA        FA
  0 C      6.2565     6.0000    -0.2565     4.0120     3.7951     0.2169
  1 C      6.1276     6.0000    -0.1276     3.9031     3.6877     0.2154
  2 H      0.8884     1.0000     0.1116     1.0122     0.9784     0.0338
  3 H      0.8985     1.0000     0.1015     1.0143     0.9805     0.0338
  4 H      0.8876     1.0000     0.1124     1.0058     0.9724     0.0335
  5 C      6.2278     6.0000    -0.2278     3.9733     3.8010     0.1723
  6 H      0.8991     1.0000     0.1009     1.0029     0.9680     0.0349
  7 H      0.9119     1.0000     0.0881     1.0097     0.9747     0.0349
  8 H      0.8973     1.0000     0.1027     1.0104     0.9753     0.0352
  9 O      8.2529     8.0000    -0.2529     2.1020     0.9698     1.1321
 10 H      0.7523     1.0000     0.2477     1.0309     0.9960     0.0349

  Mayer bond orders larger than 0.100000
B(  0-C ,  1-C ) :   1.7831 B(  0-C ,  2-H ) :   0.9698 B(  0-C ,  3-H ) :   0.9754 
B(  1-C ,  4-H ) :   0.9608 B(  1-C ,  5-C ) :   0.9304 B(  5-C ,  6-H ) :   0.9554 
B(  5-C ,  7-H ) :   0.9647 B(  5-C ,  8-H ) :   0.9515 B(  9-O , 10-H ) :   0.9451 



-------
TIMINGS
-------

Total time                :    9.446 sec
Integral trafo            :    0.304 sec (  3.2%)
FC preparation            :    0.069 sec (  0.7%)
I/O of integrals          :    0.099 sec (  1.1%)
K(i,j) operators          :    0.079 sec (  0.8%)
T(i,j) pair energies      :    0.018 sec (  0.2%)
V**(-1/2)                 :    0.048 sec (  0.5%)
Gamma(ia|P)               :    0.075 sec (  0.8%)
Gamma-Trafo               :    0.024 sec (  0.3%)
D(virtual)                :    0.015 sec (  0.2%)
D(internal)               :    0.061 sec (  0.6%)
W(virtual)                :    0.015 sec (  0.2%)
W(internal)               :    0.045 sec (  0.5%)
L(virtual)                :    0.077 sec (  0.8%)
L(internal)               :    0.003 sec (  0.0%)
XC kernel                 :    0.022 sec (  0.2%)
G(D)                      :    0.580 sec (  6.1%)
G(Z)                      :    0.575 sec (  6.1%)
Z-vector solution         :    2.615 sec ( 27.7%)
3-index derivative        :    0.183 sec (  1.9%)
2-index derivative        :    0.039 sec (  0.4%)
Fock matrix gradient      :    4.108 sec ( 43.5%)


---------------------------------------
MP2 TOTAL ENERGY:     -193.364065830 Eh
---------------------------------------

The final MP2 gradient
  0:  -0.00000256  -0.00004908   0.00025023
  1:   0.00004778   0.00004434  -0.00029548
  2:   0.00000459  -0.00005222   0.00002716
  3:  -0.00005185  -0.00000717   0.00012098
  4:   0.00005033  -0.00003411  -0.00002806
  5:   0.00004661  -0.00007368   0.00021795
  6:  -0.00003787  -0.00001781  -0.00005244
  7:   0.00006783   0.00005513  -0.00012475
  8:  -0.00003532   0.00010756  -0.00022093
  9:   0.00004872  -0.00005393   0.00017054
 10:  -0.00012438   0.00007748  -0.00009969

-----------------------------------
NORM OF THE MP2 GRADIENT:  0.000626
-----------------------------------

Maximum memory used throughout the entire MP2-calculation: 35.9 MB


-------------------------------------------------------------------------------
                          DFT DISPERSION CORRECTION                            
                                                                               
                                DFTD4 V3.4.0                                   
-------------------------------------------------------------------------------
The REV-DSD-PBEP86-2021 functional is recognized
A user input s6-coefficient scaling factor has been recognized
A user input a1-coefficient scaling factor has been recognized
A user input s8-coefficient scaling factor has been recognized
A user input a2-coefficient scaling factor has been recognized
A user input s9-coefficient scaling factor has been recognized
Active option DFTDOPT                   ...         5   

-------------------------   ----------------
Dispersion correction           -0.003654742
-------------------------   ----------------


-------------------------   --------------------
FINAL SINGLE POINT ENERGY      -193.367720572048
-------------------------   --------------------

                                *** OPTIMIZATION RUN DONE ***



           ************************************************************
           *        Program running with 8 parallel MPI-processes     *
           *              working on a common directory               *
           ************************************************************

------------------------------------------------------------------------------
                              ORCA PROPERTY CALCULATIONS
------------------------------------------------------------------------------

GBWName                                 ... opt.gbw
Number of atoms                         ...     11
Number of basis functions               ...    222
Max core memory                         ...  10000 MB

Electric properties:
Dipole moment                           ... YES
Quadrupole moment                       ...  NO
Static polarizability (Dipole/Dipole)   ...  NO
Static polarizability (Dipole/Quad.)    ...  NO
Static polarizability (Quad./Quad.)     ...  NO
Static polarizability (Velocity)        ...  NO
Static hyperpolarizability              ...  NO

Atomic electric properties:
Dipole moment                           ...  NO
Quadrupole moment                       ...  NO
Static polarizability                   ...  NO

Choice of electric origin               ... Center of mass
Position of electric origin             ...    -0.827309     1.739815     2.164719

General magnetic properties:
Magnetizability                         ...  NO

EPR properties:
g-Tensor (aka g-matrix)                 ...  NO
Zero-Field splitting spin-orbit         ...  NO
Zero-field splitting spin-spin          ...  NO
Hyperfine couplings                     ...  NO (   0 nuclei)
Quadrupole couplings                    ...  NO (   0 nuclei)
Contact density                         ...  NO (   0 nuclei)

NMR properties:
Chemical shifts                         ...  NO (   0 nuclei)
Spin-rotation constants                 ...  NO (   0 nuclei)
Spin-spin couplings                     ...  NO (   0 nuclei,    0 pairs)

Choice of magnetic origin               ... GIAO
Position of magnetic origin             ...     0.000000     0.000000     0.000000

Properties with geometric perturbations:
SCF Hessian                             ...  NO
IR spectrum                             ...  NO
VCD spectrum                            ...  NO
X-ray spectroscopy properties:
SCF XES/XAS/RIXS spectra                ...  NO

SCF SOC stabilization energy            ...  NO
Diagonal Born-Oppenheimer correction    ...  NO

-------------
DIPOLE MOMENT
-------------

Method             : SCF
Type of density    : Electron Density
Multiplicity       :   2
Irrep              :   0
Energy             :  -192.9869147917084717 Eh
Basis              : AO
                                X                 Y                 Z
Electronic contribution:      0.911454985       2.973111079      -0.682447710
Nuclear contribution   :     -0.830020902      -3.831050397       0.682495457
                        -----------------------------------------
Total Dipole Moment    :      0.081434083      -0.857939318       0.000047747
                        -----------------------------------------
Magnitude (a.u.)       :      0.861795443
Magnitude (Debye)      :      2.190509932



--------------------
Rotational spectrum 
--------------------
 
Rotational constants in cm-1:             0.272531             0.123616             0.093833 
Rotational constants in MHz :          8170.275598          3705.919039          2813.031254 

Dipole components along the rotational axes: 
x,y,z [a.u.] :     0.852719     0.115721     0.046577 
x,y,z [Debye]:     2.167441     0.294140     0.118390 

 

-------------
DIPOLE MOMENT
-------------

Method             : MP2
Type of density    : Electron Density
Multiplicity       :   2
Level              : Unrelaxed density
Irrep              :   0
Energy             :     0.0000000000000000 Eh
Basis              : AO
                                X                 Y                 Z
Electronic contribution:      0.909909507       2.981171693      -0.682405728
Nuclear contribution   :     -0.830020902      -3.831050397       0.682495457
                        -----------------------------------------
Total Dipole Moment    :      0.079888605      -0.849878703       0.000089729
                        -----------------------------------------
Magnitude (a.u.)       :      0.853625215
Magnitude (Debye)      :      2.169742864



--------------------
Rotational spectrum 
--------------------
 
Rotational constants in cm-1:             0.272531             0.123616             0.093833 
Rotational constants in MHz :          8170.275598          3705.919039          2813.031254 

Dipole components along the rotational axes: 
x,y,z [a.u.] :     0.844728     0.114200     0.045490 
x,y,z [Debye]:     2.147127     0.290275     0.115626 

 

-------------
DIPOLE MOMENT
-------------

Method             : MP2
Type of density    : Electron Density
Multiplicity       :   2
Level              : Relaxed density
Irrep              :   0
Energy             :     0.0000000000000000 Eh
Basis              : AO
                                X                 Y                 Z
Electronic contribution:      0.909978070       3.006516588      -0.693165153
Nuclear contribution   :     -0.830020902      -3.831050397       0.682495457
                        -----------------------------------------
Total Dipole Moment    :      0.079957169      -0.824533809      -0.010669696
                        -----------------------------------------
Magnitude (a.u.)       :      0.828470273
Magnitude (Debye)      :      2.105804083



--------------------
Rotational spectrum 
--------------------
 
Rotational constants in cm-1:             0.272531             0.123616             0.093833 
Rotational constants in MHz :          8170.275598          3705.919039          2813.031254 

Dipole components along the rotational axes: 
x,y,z [a.u.] :     0.818534     0.121255     0.040772 
x,y,z [Debye]:     2.080548     0.308205     0.103633 

 

Dipole moment calculation done in   0.0 sec 

Maximum memory used throughout the entire PROP-calculation: 10.2 MB

--------------------------------
SUGGESTED CITATIONS FOR THIS RUN
--------------------------------

Below you find a list of papers that are relevant to this ORCA run
We neither can nor want to force you to cite these papers, but we appreciate if you do
You receive ORCA, which is the product of decades of hard work by many enthusiastic individuals, for free
The only thing we kindly ask in return is that you cite our papers,
We deeply appreciate it, if you show your appreciation for ORCA by not just citing the generic ORCA reference.

Please note that relegating all ORCA citations to the supporting information does *not* help us.
SI sections are not indexed - citations you put there will not count into any citation statistics
But we need these citations in order to attract the funding resources that allow us to do what we are doing

Therefore, if you are a happy ORCA user, please consider citing a few of the papers listed below in the main body of your paper

In addition to the list printed below, the program has created the file opt.bibtex that contains the list in bibtex format
You can import this file easily into all common literature databanks and citation aid programs


List of essential papers. We consider these as the minimum necessary citations

  1. Neese, F.
     Software update: the ORCA program system, version 6.0
     WIRES Comput. Molec. Sci. 2025 15(1), e70019
     doi.org/10.1002/wcms.7019

List of papers to cite with high priority. The work reported in these papers was absolutely
necessary for this run to complete.
Our perspective: the developers of density functionals and basis sets usually get cited in chemistry papers
Good! But without the algorithms to do something with them, the functionals or basis sets would not do anything.
Hence, in our opinion, the algorithm design and method developments papers are equally worthy of getting cited

  1. Neese, F.
     An improvement of the resolution of the identity approximation for the formation of the Coulomb matrix
     J. Comp. Chem. 2003 24(14), 1740-1747
     doi.org/10.1002/jcc.10318
  2. Neese, F.; Schwabe, T.; Grimme, S.
     Analytic derivatives for perturbatively corrected 'double hybrid' density functionals: Theory, implementation, and applications
     J. Chem. Phys. 2007 126(12), Art. No. 124115
     doi.org/10.1063/1.2712433
  3. Neese, F.; Wennmohs, F.; Hansen, A.; Becker, U.
     Efficient, approximate and parallel Hartree-Fock and hybrid DFT calculations. A 'chain-of-spheres' algorithm for the Hartree-Fock exchange
     Chem. Phys. 2009 356(1-3), 98-109
     doi.org/10.1016/j.chemphys.2008.10.036
  4. Kossmann, S.; Neese, F.
     Efficient Structure Optimization with Second-Order Many-Body Perturbation Theory: The RIJCOSX-MP2 Method
     J. Theo. Comp. Chem. 2010 6 , 2325-2338
     doi.org/10.1021/ct100199k
  5. Caldeweyher, E.; Bannwarth, C.; Grimme, S.
     Extension of the D3 dispersion coefficient model
     J. Chem. Phys. 2017 147 , 034112
     doi.org/10.1063/1.4993215
  6. Caldeweyher, E.; Ehlert, S.; Hansen, A.; Neugebauer, H.; Spicher, S.; Bannwarth, C.; Grimme, S.
     A generally applicable atomic-charge dependent London dispersion correction
     J. Chem. Phys. 2019 150 , 154122
     doi.org/10.1063/1.5090222
  7. Caldeweyher, E.; Mewes, J.; Ehlert, S.; Grimme, S.
     Extension and evaluation of the D4 London-dispersion model for periodic systems
     Phys. Chem. Chem. Phys. 2020 22(16), 8499-8512
     doi.org/10.1039/D0CP00502A
  8. Helmich-Paris, B.; de Souza, B.; Neese, F.; Izsák, R.
     An improved chain of spheres for exchange algorithm
     J. Chem. Phys. 2021 155(10), 104109
     doi.org/10.1063/5.0058766
  9. Neese, F.
     The SHARK Integral Generation and Digestion System
     J. Comp. Chem. 2022 44(3), 381
     doi.org/10.1002/jcc.26942
 10. Wittmann, L.; Gordiy, I.; Friede, M.; Helmich-Paris, B.; Grimme, S.; Hansen, A.; Bursch, M.
     Extension of the D3 and D4 London Dispersion Corrections to the full Actinides Series
     Phys. Chem. Chem. Phys. 2024 26(32), 21379-21394
     doi.org/10.1039/D4CP01514B

List of suggested additional citations. These are papers that are important in the 'surrounding' of 
of this run, or papers that preceded the highly important papers. If you like your results we are grateful for a citation.

  1. Izsak, R.; Neese, F.
     An overlap fitted chain of spheres exchange method
     J. Chem. Phys. 2011 135 , 144105
     doi.org/10.1063/1.3646921
  2. Izsak, R.; Hansen, A.; Neese, F.
     The resolution of identity and chain of spheres approximations for the LPNO-CCSD singles Fock term
     Molec. Phys. 2012 110 , 2413-2417
     doi.org/10.1080/00268976.2012.687466
  3. Neese, F.
     The ORCA program system
     WIRES Comput. Molec. Sci. 2012 2(1), 73-78
     doi.org/10.1002/wcms.81
  4. Izsak, R.; Neese, F.; Klopper, W.
     Robust fitting techniques in the chain of spheres approximation to the Fock exchange: The role of the complementary space
     J. Chem. Phys. 2013 139 , 
     doi.org/10.1063/1.4819264
  5. Neese, F.
     Software update: the ORCA program system, version 4.0
     WIRES Comput. Molec. Sci. 2018 8(1), 1-6
     doi.org/10.1002/wcms.1327
  6. Neese, F.; Wennmohs, F.; Becker, U.; Riplinger, C.
     The ORCA quantum chemistry program package
     J. Chem. Phys. 2020 152(22), 224108
     doi.org/10.1063/5.0004608
  7. Neese, F.
     Software update: The ORCA program system—Version 5.0
     WIRES Comput. Molec. Sci. 2022 12(1), e1606
     doi.org/10.1002/wcms.1606

List of optional additional citations

  1. Neese, F.
     Approximate second-order SCF convergence for spin unrestricted wavefunctions
     Chem. Phys. Lett. 2000 325(1-3), 93-98
     doi.org/10.1016/s0009-2614(00)00662-x

Timings for individual modules:

Sum of individual times          ...      101.586 sec (=   1.693 min)
Startup calculation              ...        8.819 sec (=   0.147 min)   8.7 %
SCF iterations                   ...       47.234 sec (=   0.787 min)  46.5 %
Property calculations            ...        1.635 sec (=   0.027 min)   1.6 %
MP2 module                       ...       43.849 sec (=   0.731 min)  43.2 %
Geometry relaxation              ...        0.048 sec (=   0.001 min)   0.0 %
                             ****ORCA TERMINATED NORMALLY****
TOTAL RUN TIME: 0 days 0 hours 1 minutes 48 seconds 88 msec
