
                                 *****************
                                 * O   R   C   A *
                                 *****************

                                            #,                                       
                                            ###                                      
                                            ####                                     
                                            #####                                    
                                            ######                                   
                                           ########,                                 
                                     ,,################,,,,,                         
                               ,,#################################,,                 
                          ,,##########################################,,             
                       ,#########################################, ''#####,          
                    ,#############################################,,   '####,        
                  ,##################################################,,,,####,       
                ,###########''''           ''''###############################       
              ,#####''   ,,,,##########,,,,          '''####'''          '####       
            ,##' ,,,,###########################,,,                        '##       
           ' ,,###''''                  '''############,,,                           
         ,,##''                                '''############,,,,        ,,,,,,###''
      ,#''                                            '''#######################'''  
     '                                                          ''''####''''         
             ,#######,   #######,   ,#######,      ##                                
            ,#'     '#,  ##    ##  ,#'     '#,    #''#        ,####,    ,#,          
            ##       ##  ##   ,#'  ##            #'  '#       #'       ,# #          
            ##       ##  #######   ##           ,######,      #####,      #          
            '#,     ,#'  ##    ##  '#,     ,#' ,#      #,     #,   #      #          
             '#######'   ##     ##  '#######'  #'      '#     '####' #    #          



                #########################################################
                #                        -***-                          #
                #          Department of theory and spectroscopy        #
                #                                                       #
                #                      Frank Neese                      #
                #                                                       #
                #     Directorship, Architecture, Infrastructure        #
                #                    SHARK, DRIVERS                     #
                #        Core code/Algorithms in most modules           #
                #                                                       #
                #        Max Planck Institute fuer Kohlenforschung      #
                #                Kaiser Wilhelm Platz 1                 #
                #                 D-45470 Muelheim/Ruhr                 #
                #                      Germany                          #
                #                                                       #
                #                  All rights reserved                  #
                #                        -***-                          #
                #########################################################


                         Program Version 6.1.0  -  RELEASE   -
                                (GIT: $679e74b$)
                          ($2025-06-10 18:02:51 +0200$)


 With contributions from (in alphabetic order):
[Max-Planck-Institut fuer Kohlenforschung]                               
  Daniel Aravena         : Magnetic Suceptibility                        
  Michael Atanasov       : Ab Initio Ligand Field Theory (pilot matlab implementation)
  Alexander A. Auer      : GIAO ZORA, VPT2 properties, NMR spectrum      
  Ute Becker             : All parallelization in ORCA, NUMFREQ, NUMCALC 
  Giovanni Bistoni       : ED, misc. LED, open-shell LED, HFLD           
  Dmytro Bykov           : pre 5.0 version of the SCF Hessian            
  Marcos Casanova-Páez   : Triplet and SCS-CIS(D). UHF-(DLPNO)-IP/EA/STEOM-CCSD. UHF-CVS-IP/STEOM-CCSD   
  Vijay G. Chilkuri      : MRCI spin determinant printing, contributions to CSF-ICE 
  Pauline Colinet        : FMM embedding                                 
  Dipayan Datta          : RHF DLPNO-CCSD density                        
  Achintya Kumar Dutta   : EOM-CC, STEOM-CC                              
  Nicolas Foglia         : Exact transition moments, OPA infrastructure, MCD improvements    
  Dmitry Ganyushin       : Spin-Orbit,Spin-Spin,Magnetic field MRCI      
  Miquel Garcia-Rates    : C-PCM and meta-GGA Hessian, CCSD/C-PCM, Gaussian charge scheme 
  Tiago L. C. Gouveia    : GS-ROHF, GS-ROCIS                             
  Yang Guo               : DLPNO-NEVPT2, F12-NEVPT2, CIM, IAO-localization        
  Andreas Hansen         : Spin unrestricted coupled pair/coupled cluster methods 
  Ingolf Harden          : AUTO-CI MPn and infrastructure                
  Benjamin Helmich-Paris : MC-RPA, TRAH-(SCF,CASSCF), AVAS, COSX integrals, SCF dyn. polar., MC-PDFT, srDFT 
  Lee Huntington         : MR-EOM, pCC                                   
  Robert Izsak           : Overlap fitted RIJCOSX, COSX-SCS-MP3, EOM     
  Riya Kayal             : Wick's Theorem for AUTO-CI, AUTO-CI UHF-CCSDT 
  Emily Kempfer          : AUTO-CI RHF CISDT and CCSDT, approximate NEVPT4
  Christian Kollmar      : KDIIS, OOCD, Brueckner-CCSD(T), CCSD density, CASPT2, CASPT2-K, improved NEVPT2 
  Axel Koslowski         : Symmetry handling                             
  Simone Kossmann        : meta-GGA functionals, TD-DFT gradient, OOMP2, (MP2 Hessian; deprecated post 5.0) 
  Lucas Lang             : DCDCAS, Hyperfine gauge corrections, ICE-SOC+SSC
  Marvin Lechner         : AUTO-CI (C++ implementation), FIC-MRCC        
  Spencer Leger          : CASSCF response                               
  Dagmar Lenk            : GEPOL surface, SMD, ORCA-2-JSON               
  Dimitrios Liakos       : Extrapolation schemes; Compound Job, Property file
  Dimitrios Manganas     : Further ROCIS development; embedding schemes. LFT, Crystal Embedding 
  Dimitrios Pantazis     : SARC Basis sets                               
  Anastasios Papadopoulos: AUTO-CI, single reference methods and gradients 
  Taras Petrenko         : pre 6.0 DFT Hessian and TD-DFT gradient,  ECA, NRVS 
  Petra Pikulova         : Analytic Raman intensities                    
  Peter Pinski           : DLPNO-MP2, DLPNO-MP2 Gradient                 
  Shashank Vittal Rao    : ES-AILFT, MagRelax                            
  Christoph Reimann      : Effective Core Potentials                     
  Marius Retegan         : Local ZFS, SOC                                
  Christoph Riplinger    : Optimizer, TS searches, QM/MM, DLPNO-CCSD(T), (RO)-DLPNO pert. Triples 
  Michael Roemelt        : Original ROCIS implementation, recursive CI coupling coefficients
  Masaaki Saitow         : Open-shell DLPNO-CCSD energy and density      
  Barbara Sandhoefer     : DKH picture change effects                    
  Yorick L. A. Schmerwitz: GMF and freeze-and-release deltaSCF, NEB S-IDPP initial path                    
  Kantharuban Sivalingam : CASSCF convergence/infrastructure, NEVPT2, NEVPT3, NEVPT4(SD), FIC-MRCI and CEPA variants
  Bernardo de Souza      : ESD, SOC TD-DFT                               
  Georgi L. Stoychev     : AutoAux, RI-MP2 NMR, DLPNO-MP2 response, X2C  
  Van Anh Tran           : RI-MP2 g-tensors                              
  Willem Van den Heuvel  : Paramagnetic NMR                              
  Zikuan Wang            : NOTCH, Electric field optimization            
  Frank Wennmohs         : Technical directorship and infrastructure     
  Hang Xu                : AUTO-CI-Response properties                   
                                                                         
[FACCTs GmbH]                                                            
  Markus Bursch, Nicolas Foglia, Miquel Garcia-Rates, Ingolf Harden, Hagen Neugebauer, Anastasios Papadopoulos, 
  Christoph Riplinger, Bernardo de Souza, Georgi L. Stoychev                                                    
                                                                 
  APM, various basis sets, CI-OPT, improved COSX, DLPNO-Multilevel,           
  DOCKER, DRACO, updates on ESD, Fragmentator, GOAT, IRC, LR-CPCM, L-BFGS, MBIS, meta-GGA TD-DFT gradient, ML-optimized integration grids, 
  MM, NACMEs, nearIR, NEB, NEB-TS, NL-DFT gradient (VV10), 2- and 3-layer-ONIOM, interface openCOSMO-RS, QMMM,   
  Crystal-QMMM, RESP, rigid body optimization, SF, symmetry and pop. for TD-DFT, various functionals, SOLVATOR                                   
                                                                         
[Other institutions]                                                     
  V. Asgeirsson          : NEB                                           
  Christoph Bannwarth    : sTDA-DFT, sTD-DFT, PBEh-3c, B97-3c, D3        
  Giovanni Bistoni       : ETS/NOCV, ADLD/ADEX, COVALED                  
  Martin Brehm           : Molecular dynamics                            
  Ronald Cardenas        : ETS/NOCV                                      
  Martina Colucci        : COVALED                                       
  Sebastian Ehlert       : rSCAN, r2SCAN, r2SCAN-3c, D4, dhf basis sets  
  Marvin Friede          : D4 for Fr, Ra, Ac-Lr                          
  Lars Goerigk           : TD-DFT with DH, B97 family of functionals     
  Stefan Grimme          : VdW corrections, initial TS optimization, DFT functionals, gCP, sTDA/sTD-DF 
  Waldemar Hujo          : DFT-NL                                        
  H. Jonsson             : NEB                                           
  Holger Kruse           : gCP                                           
  Marcel Mueller         : wB97X-3c, vDZP basis set                      
  Hagen Neugebauer       : wr2SCAN, Native XTB                           
  Gianluca Regni         : ADLD/ADEX                                     
  Tobias Risthaus        : pre 6.0 range-separated hybrid DFT and stability analysis
  Lukas Wittmann         : regularized MP2, r2SCAN double-hybrids, wr2SCAN        
                                                                         
We gratefully acknowledge several colleagues who have allowed us to      
interface, adapt or use parts of their codes:                            
  Ed Valeev, F. Pavosevic, A. Kumar             : LibInt (2-el integral package), F12 methods 
  Garnet Chan, S. Sharma, J. Yang, R. Olivares  : DMRG                   
  Ulf Ekstrom                                   : XCFun DFT Library      
  Mihaly Kallay                                 : mrcc  (arbitrary order and MRCC methods)
  Frank Weinhold                                : gennbo (NPA and NBO analysis)           
  Simon Mueller                                 : openCOSMO-RS                            
  Christopher J. Cramer and Donald G. Truhlar   : smd solvation model                     
  S Lehtola, MJT Oliveira, MAL Marques          : LibXC Library                           
  Liviu Ungur et al                             : ANISO software                          


 Your calculation uses the libint2 library for the computation of 2-el integrals
 For citations please refer to: http://libint.valeyev.net

 Your ORCA version has been built with support for libXC version: 7.0.0
 For citations please refer to: https://libxc.gitlab.io

 This ORCA versions uses:
   CBLAS   interface :  Fast vector & matrix operations
   LAPACKE interface :  Fast linear algebra routines
   SCALAPACK package :  Parallel linear algebra routines
   Shared memory     :  Shared parallel matrices
   BLAS/LAPACK       :  OpenBLAS 0.3.29  USE64BITINT DYNAMIC_ARCH NO_AFFINITY SkylakeX SINGLE_THREADED
        Core in use  :  SkylakeX
   Copyright (c) 2011-2014, The OpenBLAS Project


  ***********************************
  * Starting time: Wed Aug 20 09:11:20 2025
  * Host name:     csed-0008
  * Process ID:    1598042
  * Working dir.:  /gpfs/fs1/home/copan/proj/cyclopentene-oh-addition-project/calc/C3e1+OH__C3y2o1/run-revdsd
  ***********************************

NOTE: MaxCore=10000 MB was set to SCF,MP2,MDCI,CIPSI,MRCI,RASCI and CIS
      => If you want to overwrite this, your respective input block should be placed after the MaxCore statement


***************************************
The coordinates will be read from file: guess.xyz
***************************************


Your calculation utilizes the atom-pairwise dispersion correction
based on EEQ partial charges (D4)


Warning: RI is on but no J-basis has been assigned. Assigning Def2/J (nothing to worry about!)
================================================================================

----- Orbital basis set information -----
Your calculation utilizes the basis: def2-TZVPP
   F. Weigend and R. Ahlrichs, Phys. Chem. Chem. Phys. 7, 3297 (2005).

----- AuxJ basis set information -----
Your calculation utilizes the auxiliary basis: def2/J
   H-Rn: F. Weigend, Phys. Chem. Chem. Phys. 8, 1057 (2006).
   Fr-Lr: K. Eichkorn, F. Weigend, O. Treutler, R. Ahlrichs; Theor. Chem. Acc. 97, 119 (1997).

----- AuxC basis set information -----
Your calculation utilizes the auxiliary basis: def2-TZVPP/C
  H-La, Hf-Rn : A. Hellweg, C. Hattig, S. Hofener and W. Klopper, Theor. Chem. Acc. 117, 587 (2007).
        Ce-Lu : J. Chmela and M. E. Harding, Mol. Phys. (2018).

================================================================================
                                        WARNINGS
                       Please study these warnings very carefully!
================================================================================


WARNING: your system is open-shell and RHF/RKS was chosen
  ===> : WILL SWITCH to UHF/UKS


WARNING: The frozen-core approximation for MP2-gradient calculations is turned on by default.

WARNING: The environment variable RSH_COMMAND is not set!
  ===> : All Displacements for the Numerical Hessian or Gradient calculation
         will be started on localhost

WARNING: Geometry Optimization
  ===> : Switching off AutoStart
         For restart on a previous wavefunction, please use MOREAD

WARNING: The frozen-core approximation is turned on by default for 
         the MP2 part of double-hybrid DFT.

================================================================================
                                       INPUT FILE
================================================================================
NAME = opt.inp
|  1> % MaxCore 10000
|  2> ! PAL8
|  3> ! REVDSD-PBEP86-D4/2021 def2-TZVPP def2-TZVPP/c
|  4> ! OptTS
|  5> ! NumFreq
|  6> %geom 
|  7>    Calc_Hess true
|  8>    NumHess   true
|  9> end
| 10> * xyzfile 0 2 guess.xyz
| 11> 
| 12>                          ****END OF INPUT****
================================================================================

                       *****************************
                       * Geometry Optimization Run *
                       *****************************

Geometry optimization settings:
Update method            Update   .... Bofill
Choice of coordinates    CoordSys .... (2022) Redundant Internals
Initial Hessian          InHess   .... Almloef's Model
Max. no of cycles        MaxIter  .... 50

Convergence Tolerances:
Energy Change            TolE     ....  5.0000e-06 Eh
Max. Gradient            TolMAXG  ....  3.0000e-04 Eh/bohr
RMS Gradient             TolRMSG  ....  1.0000e-04 Eh/bohr
Max. Displacement        TolMAXD  ....  4.0000e-03 bohr
RMS Displacement         TolRMSD  ....  2.0000e-03 bohr
Strict Convergence                .... False

------------------------------------------------------------------------------
                        ORCA OPTIMIZATION COORDINATE SETUP
------------------------------------------------------------------------------

The optimization will be done in redundant internal coordinates (2022)
Making redundant internal coordinates   ...  (2022 redundants) done
Following TS mode number                ...     0
Evaluating the initial hessian          ...  (Is done on the fly) done
Evaluating the coordinates              ...  done
Calculating the B-matrix                .... done
Calculating the G-matrix                .... done
The number of degrees of freedom        ....   64

    -----------------------------------------------------------------
                    Redundant Internal Coordinates


    -----------------------------------------------------------------
         Definition                    Initial Value    d2E/dq (diagonal element)
    -----------------------------------------------------------------
      1. B(H   1,C   0)                  1.0840         0.000000   
      2. B(C   2,C   0)                  1.3468         0.000000   
      3. B(H   3,C   2)                  1.0788         0.000000   
      4. B(H   4,C   2)                  1.0795         0.000000   
      5. B(C   5,C   0)                  1.4944         0.000000   
      6. B(H   6,C   5)                  1.0872         0.000000   
      7. B(H   7,C   5)                  1.0898         0.000000   
      8. B(H   8,C   5)                  1.0957         0.000000   
      9. B(O   9,H   3)                  2.6773         0.000000   
     10. B(O   9,C   0)                  2.7947         0.000000   
     11. B(O   9,H   4)                  2.4595         0.000000   
     12. B(O   9,C   2)                  2.3351         0.000000   
     13. B(H  10,C   0)                  2.6296         0.000000   
     14. B(H  10,C   2)                  2.5604         0.000000   
     15. B(H  10,H   4)                  3.0157         0.000000   
     16. B(H  10,O   9)                  0.9683         0.000000   
     17. B(H  10,H   1)                  2.8967         0.000000   
     18. B(H  10,H   3)                  2.8329         0.000000   
     19. A(C   2,C   0,O   9)           56.3481         0.000000   
     20. A(C   5,C   0,O   9)          101.4958         0.000000   
     21. A(C   2,C   0,C   5)          123.9239         0.000000   
     22. A(H   1,C   0,O   9)          111.3684         0.000000   
     23. A(H   1,C   0,C   5)          117.2259         0.000000   
     24. A(H   1,C   0,C   2)          118.8340         0.000000   
     25. A(H   4,C   2,O   9)           83.5213         0.000000   
     26. A(C   0,C   2,H   4)          120.9379         0.000000   
     27. A(H   3,C   2,O   9)           96.2825         0.000000   
     28. A(H   3,C   2,H   4)          117.4338         0.000000   
     29. A(C   0,C   2,H   3)          121.3800         0.000000   
     30. A(C   0,C   2,O   9)           94.9589         0.000000   
     31. A(C   0,C   5,H   6)          110.8511         0.000000   
     32. A(H   7,C   5,H   8)          107.0204         0.000000   
     33. A(H   6,C   5,H   8)          108.6209         0.000000   
     34. A(C   0,C   5,H   8)          110.8894         0.000000   
     35. A(H   6,C   5,H   7)          108.2039         0.000000   
     36. A(C   0,C   5,H   7)          111.1198         0.000000   
     37. A(C   0,O   9,C   2)           28.6930         0.000000   
     38. A(C   0,O   9,H  10)           70.2025         0.000000   
     39. A(C   2,O   9,H  10)           92.0943         0.000000   
     40. D(H   4,C   2,C   0,H   1)   -176.9377         0.000000   
     41. D(O   9,C   2,C   0,C   5)    -80.8392         0.000000   
     42. D(H   3,C   2,C   0,H   1)     -2.8088         0.000000   
     43. D(O   9,C   2,C   0,H   1)     97.6531         0.000000   
     44. D(H   4,C   2,C   0,O   9)     85.4092         0.000000   
     45. D(H   4,C   2,C   0,C   5)      4.5701         0.000000   
     46. D(H   3,C   2,C   0,C   5)    178.6989         0.000000   
     47. D(H   3,C   2,C   0,O   9)   -100.4619         0.000000   
     48. D(H   7,C   5,C   0,O   9)     62.8385         0.000000   
     49. D(H   7,C   5,C   0,C   2)    119.8338         0.000000   
     50. D(H   7,C   5,C   0,H   1)    -58.6808         0.000000   
     51. D(H   6,C   5,C   0,O   9)    -57.5252         0.000000   
     52. D(H   6,C   5,C   0,C   2)     -0.5299         0.000000   
     53. D(H   8,C   5,C   0,H   1)     60.2193         0.000000   
     54. D(H   6,C   5,C   0,H   1)   -179.0445         0.000000   
     55. D(C   0,O   9,C   2,H   4)   -120.6308         0.000000   
     56. D(C   0,O   9,C   2,H   3)    122.3696         0.000000   
     57. D(H  10,O   9,C   2,H   3)     82.9696         0.000000   
     58. D(H  10,O   9,C   2,C   0)    -39.3999         0.000000   
     59. D(C   2,O   9,C   0,C   5)    123.2834         0.000000   
     60. D(C   2,O   9,C   0,H   1)   -111.2026         0.000000   
     61. D(H  10,O   9,C   2,H   4)   -160.0307         0.000000   
     62. D(H  10,O   9,C   0,C   5)    -99.1048         0.000000   
     63. D(H  10,O   9,C   0,C   2)    137.6117         0.000000   
     64. D(H  10,O   9,C   0,H   1)     26.4091         0.000000   
    -----------------------------------------------------------------

Number of atoms                         .... 11
Number of degrees of freedom            .... 64


         *************************************************************
         *                GEOMETRY OPTIMIZATION CYCLE   1            *
         *************************************************************
---------------------------------
CARTESIAN COORDINATES (ANGSTROEM)
---------------------------------
  C      0.000000    0.000000    0.000000
  H      0.000000    0.000000    1.083983
  C      1.179838    0.000000   -0.649534
  H      2.115620    0.045134   -0.114575
  H      1.220105    0.049464   -1.727131
  C     -1.328476   -0.032628   -0.683708
  H     -1.207449   -0.046603   -1.764055
  H     -1.897879   -0.915303   -0.393481
  H     -1.930128    0.841342   -0.410336
  O      1.207245   -2.305627   -1.018281
  H      0.844502   -2.486421   -0.138893

----------------------------
CARTESIAN COORDINATES (A.U.)
----------------------------
  NO LB      ZA    FRAG     MASS         X           Y           Z
   0 C     6.0000    0    12.011    0.000000    0.000000    0.000000
   1 H     1.0000    0     1.008    0.000000    0.000000    2.048431
   2 C     6.0000    0    12.011    2.229571    0.000000   -1.227441
   3 H     1.0000    0     1.008    3.997942    0.085291   -0.216515
   4 H     1.0000    0     1.008    2.305664    0.093473   -3.263805
   5 C     6.0000    0    12.011   -2.510456   -0.061658   -1.292021
   6 H     1.0000    0     1.008   -2.281748   -0.088067   -3.333581
   7 H     1.0000    0     1.008   -3.586472   -1.729672   -0.743571
   8 H     1.0000    0     1.008   -3.647413    1.589906   -0.775423
   9 O     8.0000    0    15.999    2.281362   -4.357004   -1.924272
  10 H     1.0000    0     1.008    1.595877   -4.698655   -0.262470

--------------------------------
INTERNAL COORDINATES (ANGSTROEM)
--------------------------------
 C      0   0   0     0.000000000000     0.00000000     0.00000000
 H      1   0   0     1.083983000000     0.00000000     0.00000000
 C      1   2   0     1.346815549138   118.83402022     0.00000000
 H      3   1   2     1.078844827193   121.38002182   357.19120743
 H      3   1   2     1.079482937797   120.93790184   183.06234987
 C      1   2   3     1.494446284824   117.22585368   178.59307136
 H      6   1   2     1.087194773609   110.85111832   180.95549045
 H      6   1   2     1.089755313620   111.11975123   301.31917036
 H      6   1   2     1.095691991569   110.88936613    60.21925947
 O      3   1   2     2.335089153927    94.95886132    97.65312006
 H     10   3   1     0.968293451919    92.09434100   320.60006513

---------------------------
INTERNAL COORDINATES (A.U.)
---------------------------
 C      0   0   0     0.000000000000     0.00000000     0.00000000
 H      1   0   0     2.048431003826     0.00000000     0.00000000
 C      1   2   0     2.545112540778   118.83402022     0.00000000
 H      3   1   2     2.038721264392   121.38002182   357.19120743
 H      3   1   2     2.039927118676   120.93790184   183.06234987
 C      1   2   3     2.824094200173   117.22585368   178.59307136
 H      6   1   2     2.054500376352   110.85111832   180.95549045
 H      6   1   2     2.059339095727   111.11975123   301.31917036
 H      6   1   2     2.070557791196   110.88936613    60.21925947
 O      3   1   2     4.412678999212    94.95886132    97.65312006
 H     10   3   1     1.829809441396    92.09434100   320.60006513

---------------------
BASIS SET INFORMATION
---------------------
There are 3 groups of distinct atoms

 Group   1 Type C   : 11s6p2d1f contracted to 5s3p2d1f pattern {62111/411/11/1}
 Group   2 Type H   : 5s2p1d contracted to 3s2p1d pattern {311/11/1}
 Group   3 Type O   : 11s6p2d1f contracted to 5s3p2d1f pattern {62111/411/11/1}

Atom   0C    basis set group =>   1
Atom   1H    basis set group =>   2
Atom   2C    basis set group =>   1
Atom   3H    basis set group =>   2
Atom   4H    basis set group =>   2
Atom   5C    basis set group =>   1
Atom   6H    basis set group =>   2
Atom   7H    basis set group =>   2
Atom   8H    basis set group =>   2
Atom   9O    basis set group =>   3
Atom  10H    basis set group =>   2
---------------------------------
AUXILIARY/J BASIS SET INFORMATION
---------------------------------
There are 3 groups of distinct atoms

 Group   1 Type C   : 12s5p4d2f1g contracted to 6s4p3d1f1g pattern {711111/2111/211/2/1}
 Group   2 Type H   : 5s2p1d contracted to 3s1p1d pattern {311/2/1}
 Group   3 Type O   : 12s5p4d2f1g contracted to 6s4p3d1f1g pattern {711111/2111/211/2/1}

Atom   0C    basis set group =>   1
Atom   1H    basis set group =>   2
Atom   2C    basis set group =>   1
Atom   3H    basis set group =>   2
Atom   4H    basis set group =>   2
Atom   5C    basis set group =>   1
Atom   6H    basis set group =>   2
Atom   7H    basis set group =>   2
Atom   8H    basis set group =>   2
Atom   9O    basis set group =>   3
Atom  10H    basis set group =>   2
---------------------------------
AUXILIARY/C BASIS SET INFORMATION
---------------------------------
There are 3 groups of distinct atoms

 Group   1 Type C   : 8s6p5d3f1g contracted to 8s6p4d3f1g pattern {11111111/111111/2111/111/1}
 Group   2 Type H   : 4s3p2d1f contracted to 4s3p2d1f pattern {1111/111/11/1}
 Group   3 Type O   : 8s6p5d3f1g contracted to 8s6p4d3f1g pattern {11111111/111111/2111/111/1}

Atom   0C    basis set group =>   1
Atom   1H    basis set group =>   2
Atom   2C    basis set group =>   1
Atom   3H    basis set group =>   2
Atom   4H    basis set group =>   2
Atom   5C    basis set group =>   1
Atom   6H    basis set group =>   2
Atom   7H    basis set group =>   2
Atom   8H    basis set group =>   2
Atom   9O    basis set group =>   3
Atom  10H    basis set group =>   2


           ************************************************************
           *        Program running with 8 parallel MPI-processes     *
           *              working on a common directory               *
           ************************************************************
------------------------------------------------------------------------------
                             ORCA STARTUP CALCULATIONS
                           -- RI-GTO INTEGRALS CHOSEN --
------------------------------------------------------------------------------
------------------------------------------------------------------------------
                   ___                                                        
                  /   \      - P O W E R E D   B Y -                         
                 /     \                                                     
                 |  |  |   _    _      __       _____    __    __             
                 |  |  |  | |  | |    /  \     |  _  \  |  |  /  |          
                  \  \/   | |  | |   /    \    | | | |  |  | /  /          
                 / \  \   | |__| |  /  /\  \   | |_| |  |  |/  /          
                |  |  |   |  __  | /  /__\  \  |    /   |      \           
                |  |  |   | |  | | |   __   |  |    \   |  |\   \          
                \     /   | |  | | |  |  |  |  | |\  \  |  | \   \       
                 \___/    |_|  |_| |__|  |__|  |_| \__\ |__|  \__/        
                                                                              
                      - O R C A' S   B I G   F R I E N D -                    
                                      &                                       
                       - I N T E G R A L  F E E D E R -                       
                                                                              
 v1 FN, 2020, v2 2021, v3 2022-2024                                           
------------------------------------------------------------------------------


----------------------
SHARK INTEGRAL PACKAGE
----------------------

Number of atoms                             ...     11
Number of basis functions                   ...    222
Number of shells                            ...     86
Maximum angular momentum                    ...      3
Integral batch strategy                     ... SHARK/LIBINT Hybrid
RI-J (if used) integral strategy            ... SPLIT-RIJ (Revised 2003 algorithm where possible)
Printlevel                                  ...      1
Contraction scheme used                     ... SEGMENTED contraction
Prescreening option                         ... SCHWARTZ
   Thresh                                   ... 2.500e-11
   Tcut                                     ... 2.500e-12
   Tpresel                                  ... 2.500e-12 
Coulomb Range Separation                    ... NOT USED
Exchange Range Separation                   ... NOT USED
Multipole approximations                    ... NOT USED
Finite Nucleus Model                        ... NOT USED
CABS basis                                  ... NOT available
Auxiliary Coulomb fitting basis             ... AVAILABLE
   # of basis functions in Aux-J            ...    273
   # of shells in Aux-J                     ...     95
   Maximum angular momentum in Aux-J        ...      4
Auxiliary J/K fitting basis                 ... NOT available
Auxiliary Correlation fitting basis         ... AVAILABLE
   # of basis functions in Aux-C            ...    514
   # of shells in Aux-C                     ...    158
   Maximum angular momentum in Aux-C        ...      4
Auxiliary 'external' fitting basis          ... NOT available

Checking pre-screening integrals            ... done (  0.0 sec) Dimension = 86
   => SHARK Basis and OBASIS are compatible. Storing Pre-screening
Shell pair information
Shell pair cut-off parameter TPreSel        ...   2.5e-12
Total number of shell pairs                 ...      3741
Shell pairs after pre-screening             ...      3589
Total number of primitive shell pairs       ...      9425
Primitive shell pairs kept                  ...      7474
          la=0 lb=0:    814 shell pairs
          la=1 lb=0:   1024 shell pairs
          la=1 lb=1:    341 shell pairs
          la=2 lb=0:    582 shell pairs
          la=2 lb=1:    379 shell pairs
          la=2 lb=2:    118 shell pairs
          la=3 lb=0:    159 shell pairs
          la=3 lb=1:    103 shell pairs
          la=3 lb=2:     59 shell pairs
          la=3 lb=3:     10 shell pairs

Checking whether 4 symmetric matrices of dimension 222 fit in memory
:Max Core in MB      =  10000.00
 MB in use           =      7.77
 MB left             =   9992.23
 MB needed           =      0.76
 Data fit in memory  = YES
Calculating RI/J V-Matrix + Cholesky decomp.... done (  0.2 sec)
Calculating RI/C V-Matrix + Cholesky decomp.... done (  0.0 sec)
Calculating Nuclear repulsion               ... done (  0.0 sec) ENN=    114.868579628173 Eh

Diagonalization of the overlap matrix:
Smallest eigenvalue                        ... 1.403e-04
Time for diagonalization                   ...    0.005 sec
Threshold for overlap eigenvalues          ... 1.000e-07
Number of eigenvalues below threshold      ... 0
Time for construction of square roots      ...    0.003 sec
Total time needed                          ...    0.008 sec

-------------------
DFT GRID GENERATION
-------------------

General Integration Accuracy     IntAcc      ... 4.388
Radial Grid Type                 RadialGrid  ... OptM3 with GC (2021)
Angular Grid (max. ang.)         AngularGrid ... 4 (Lebedev-302)
Angular grid pruning method      GridPruning ... 4 (adaptive)
Weight generation scheme         WeightScheme... mBecke (2022)
Basis function cutoff            BFCut       ... 1.0000e-11
Integration weight cutoff        WCut        ... 1.0000e-14
Partially contracted basis set               ... off
Rotationally invariant grid construction     ... off
Angular grids for H and He will be reduced by one unit

Total number of grid points                  ...    47005
Total number of batches                      ...      742
Average number of points per batch           ...       63
Average number of grid points per atom       ...     4273

--------------------
COSX GRID GENERATION
--------------------

GRIDX 1
-------
General Integration Accuracy     IntAcc      ... 3.816
Radial Grid Type                 RadialGrid  ... OptM3 with GC (2021)
Angular Grid (max. ang.)         AngularGrid ... 1 (Lebedev-50)
Angular grid pruning method      GridPruning ... 4 (adaptive)
Weight generation scheme         WeightScheme... mBecke (2022)
Basis function cutoff            BFCut       ... 1.0000e-11
Integration weight cutoff        WCut        ... 1.0000e-14
Partially contracted basis set               ... on
Rotationally invariant grid construction     ... off
Angular grids for H and He will be reduced by one unit

Total number of grid points                  ...     6065
Total number of batches                      ...       56
Average number of points per batch           ...      108
Average number of grid points per atom       ...      551
UseSFitting                                  ... on

GRIDX 2
-------
General Integration Accuracy     IntAcc      ... 4.020
Radial Grid Type                 RadialGrid  ... OptM3 with GC (2021)
Angular Grid (max. ang.)         AngularGrid ... 2 (Lebedev-110)
Angular grid pruning method      GridPruning ... 4 (adaptive)
Weight generation scheme         WeightScheme... mBecke (2022)
Basis function cutoff            BFCut       ... 1.0000e-11
Integration weight cutoff        WCut        ... 1.0000e-14
Partially contracted basis set               ... on
Rotationally invariant grid construction     ... off
Angular grids for H and He will be reduced by one unit

Total number of grid points                  ...    12773
Total number of batches                      ...      106
Average number of points per batch           ...      120
Average number of grid points per atom       ...     1161
UseSFitting                                  ... on

GRIDX 3
-------
General Integration Accuracy     IntAcc      ... 4.338
Radial Grid Type                 RadialGrid  ... OptM3 with GC (2021)
Angular Grid (max. ang.)         AngularGrid ... 3 (Lebedev-194)
Angular grid pruning method      GridPruning ... 4 (adaptive)
Weight generation scheme         WeightScheme... mBecke (2022)
Basis function cutoff            BFCut       ... 1.0000e-11
Integration weight cutoff        WCut        ... 1.0000e-14
Partially contracted basis set               ... on
Rotationally invariant grid construction     ... off
Angular grids for H and He will be reduced by one unit

Total number of grid points                  ...    28037
Total number of batches                      ...      224
Average number of points per batch           ...      125
Average number of grid points per atom       ...     2549
UseSFitting                                  ... on
Grids setup in   0.5 sec
Initializing property integral containers    ... done (  0.0 sec)

SHARK setup successfully completed in   1.5 seconds

Maximum memory used throughout the entire STARTUP-calculation: 17.2 MB


           ************************************************************
           *        Program running with 8 parallel MPI-processes     *
           *              working on a common directory               *
           ************************************************************
-------------------------------------------------------------------------------
                                 ORCA GUESS
                   Start orbitals & Density for SCF / CASSCF
-------------------------------------------------------------------------------

------------
SCF SETTINGS
------------
Hamiltonian:
 Density Functional     Method          .... DFT(GTOs)
 Exchange Functional    Exchange        .... PBE
   PBE kappa parameter   XKappa         ....  0.804000
   PBE mue parameter    XMuePBE         ....  0.219520
 Correlation Functional Correlation     .... P86
 LDA part of GGA corr.  LDAOpt          .... VWN-5
 Gradients option       PostSCFGGA      .... off
 Hybrid DFT is turned on
   Fraction HF Exchange ScalHFX         ....  0.690000
   Scaling of DF-GGA-X  ScalDFX         ....  0.310000
   Scaling of DF-GGA-C  ScalDFC         ....  0.422400
   Scaling of DF-LDA-C  ScalLDAC        ....  0.422400
   Perturbative correction              ....  1.000000
 RI-approximation to the Coulomb term is turned on
   Number of AuxJ basis functions       .... 273
   RIJ-COSX (HFX calculated with COS-X)).... on


General Settings:
 Integral files         IntName         .... opt
 Hartree-Fock type      HFTyp           .... UHF
 Total Charge           Charge          ....    0
 Multiplicity           Mult            ....    2
 Number of Electrons    NEL             ....   33
 Basis Dimension        Dim             ....  222
 Nuclear Repulsion      ENuc            ....    114.8685796282 Eh

Convergence Acceleration:
 AO-DIIS                CNVDIIS         .... on
   Start iteration      DIISMaxIt       ....    12
   Startup error        DIISStart       ....  0.200000
   # of expansion vecs  DIISMaxEq       ....     5
   Bias factor          DIISBfac        ....   1.050
   Max. coefficient     DIISMaxC        ....  10.000
 MO-DIIS                CNVKDIIS        .... off
 Trust-Rad. Augm. Hess. CNVTRAH         .... auto
   Auto Start mean grad. ratio tolernc. ....  1.125000
   Auto Start start iteration           ....    50
   Auto Start num. interpolation iter.  ....    10
   Max. Number of Micro iterations      ....    24
   Max. Number of Macro iterations      .... Maxiter - #DIIS iter
   Number of Davidson start vectors     ....     2
   Converg. threshold    (grad. norm)   ....   1.000e-05
   Grad. Scal. Fac. for Micro threshold ....   0.100
   Minimum threshold for Micro iter.    ....   1.000e-02
   NR start threshold (gradient norm)   ....   1.000e-04
   Initial trust radius                 ....   0.400
   Minimum AH scaling param. (alpha)    ....   1.000
   Maximum AH scaling param. (alpha)    .... 1000.000
   Quad. conv. algorithm                .... NR
   White noise on init. David. guess    .... on
   Maximum white noise                  ....   0.010
   Pseudo random numbers                .... off
   Inactive MOs                         .... canonical
   Orbital update algorithm             .... Taylor
   Preconditioner                       .... Diag
   Full preconditioner red. dimension   ....   250
 SOSCF                 CNVSOSCF           .... on
   Start iteration     SOSCFMaxIt         ....   150
   Startup grad/error  SOSCFStart         ....  0.003300
   Hessian update      SOSCFHessUp        .... L-BFGS
   Autom. constraints  SOSCFAutoConstrain .... off
 Level Shifting         CNVShift        .... on
   Level shift para.    LevelShift      ....    0.2500
   Turn off err/grad.   ShiftErr        ....    0.0010
 Zerner damping         CNVZerner       .... off
 Static damping         CNVDamp         .... on
   Fraction old density DampFac         ....    0.7000
   Max. Damping (<1)    DampMax         ....    0.9800
   Min. Damping (>=0)   DampMin         ....    0.0000
   Turn off err/grad.   DampErr         ....    0.1000

SCF Procedure:
 Maximum # iterations   MaxIter         ....   125
 SCF integral mode      SCFMode         .... Direct
   Integral package                     .... SHARK and LIBINT hybrid scheme
 Reset frequency        DirectResetFreq ....    20
 Integral Threshold     Thresh          ....  2.500e-11 Eh
 Primitive CutOff       TCut            ....  2.500e-12 Eh

Convergence Tolerance:
 Convergence Check Mode ConvCheckMode   .... Total+1el-Energy
 Convergence forced     ConvForced      .... 0
 Energy Change          TolE            ....  1.000e-08 Eh
 1-El. energy change                    ....  1.000e-05 Eh
 Orbital Gradient       TolG            ....  1.000e-05
 Orbital Rotation angle TolX            ....  1.000e-05
 DIIS Error             TolErr          ....  5.000e-07

------------------------------
INITIAL GUESS: MODEL POTENTIAL
------------------------------
Loading Hartree-Fock densities                     ... done
Calculating cut-offs                               ... done
Initializing the effective Hamiltonian             ... done
Setting up the integral package (SHARK)            ... done
Starting the Coulomb interaction                   ... done (   0.1 sec)
Making the grid                                    ... done (   0.0 sec)
Mapping shells                                     ... done
Starting the XC term evaluation                    ... done (   0.0 sec)
  promolecular density results
     # of electrons  =     32.996473189
     EX              =    -25.449356031
     EC              =      0.037652304
     EX+EC           =    -25.411703728
Transforming the Hamiltonian                       ... done (   0.0 sec)
Diagonalizing the Hamiltonian                      ... done (   0.0 sec)
Back transforming the eigenvectors                 ... done (   0.0 sec)
Now organizing SCF variables                       ... done
                      ------------------
                      INITIAL GUESS DONE (   0.2 sec)
                      ------------------
             **** ENERGY FILE WAS UPDATED (opt.en.tmp) ****
Finished Guess after   0.9 sec
Maximum memory used throughout the entire GUESS-calculation: 12.5 MB


           ************************************************************
           *        Program running with 8 parallel MPI-processes     *
           *              working on a common directory               *
           ************************************************************

-------------------------------------------------------------------------------------------
                                      ORCA LEAN-SCF
                              memory conserving SCF solver
-------------------------------------------------------------------------------------------

----------------------------------------D-I-I-S--------------------------------------------
Iteration    Energy (Eh)           Delta-E    RMSDP     MaxDP     DIISErr   Damp  Time(sec)
-------------------------------------------------------------------------------------------
               ***  Starting incremental Fock matrix formation  ***
    1    -192.7661519409119819     0.00e+00  1.86e-03  2.47e-02  1.62e-01  0.700   0.7
    2    -192.8406755724198547    -7.45e-02  1.36e-03  1.97e-02  9.72e-02  0.700   0.5
                               ***Turning on AO-DIIS***
    3    -192.8785539439203376    -3.79e-02  6.33e-04  1.23e-02  5.82e-02  0.700   0.5
    4    -192.9028804791194034    -2.43e-02  1.64e-03  3.56e-02  4.96e-02  0.000   0.4
    5    -192.9663607817603861    -6.35e-02  6.98e-04  1.06e-02  2.87e-02  0.000   0.4
    6    -192.9717006164474356    -5.34e-03  8.41e-04  9.49e-03  2.02e-02  0.000   0.4
    7    -192.9759808172616431    -4.28e-03  5.45e-04  6.34e-03  1.63e-02  0.000   0.4
    8    -192.9780662287303130    -2.09e-03  3.94e-04  4.54e-03  9.13e-03  0.000   0.4
    9    -192.9788253397392168    -7.59e-04  2.39e-04  3.10e-03  5.09e-03  0.000   0.4
                              *** Initializing SOSCF ***
---------------------------------------S-O-S-C-F--------------------------------------
Iteration    Energy (Eh)           Delta-E    RMSDP     MaxDP     MaxGrad    Time(sec)
--------------------------------------------------------------------------------------
   10    -192.9790593012940576    -2.34e-04  1.26e-04  1.71e-03  2.46e-03     0.4
               *** Restarting incremental Fock matrix formation ***
   11    -192.9790818366151370    -2.25e-05  7.34e-05  1.15e-03  1.42e-03     0.6
   12    -192.9790938608092006    -1.20e-05  6.98e-05  9.86e-04  5.24e-04     0.5
   13    -192.9790996317296958    -5.77e-06  2.56e-05  2.97e-04  1.81e-04     0.6
   14    -192.9791011176886286    -1.49e-06  3.34e-05  4.29e-04  1.83e-04     0.5
   15    -192.9791024707994325    -1.35e-06  1.65e-05  2.89e-04  1.45e-04     0.5
   16    -192.9791031161149704    -6.45e-07  1.80e-05  2.36e-04  1.03e-04     0.5
   17    -192.9791035636642391    -4.48e-07  8.13e-06  1.06e-04  6.83e-05     0.5
   18    -192.9791036806839770    -1.17e-07  3.72e-06  5.67e-05  5.69e-05     0.5
   19    -192.9791037330136874    -5.23e-08  5.81e-06  1.31e-04  5.02e-05     0.5
   20    -192.9791038075628080    -7.45e-08  8.39e-06  2.08e-04  3.80e-05     0.5
   21    -192.9791038881448912    -8.06e-08  7.57e-06  1.86e-04  2.74e-05     0.5
   22    -192.9791039398293719    -5.17e-08  3.21e-06  6.58e-05  1.93e-05     0.5
   23    -192.9791039550677283    -1.52e-08  8.86e-07  9.60e-06  1.13e-05     0.5
   24    -192.9791039613178896    -6.25e-09  4.69e-07  7.44e-06  6.33e-06     0.5
                 **** Energy Check signals convergence ****

               *****************************************************
               *                     SUCCESS                       *
               *           SCF CONVERGED AFTER  24 CYCLES          *
               *****************************************************

Recomputing exchange energy using gridx3       ... done (    0.815 sec)
Old exchange energy                            :    -18.099204791 Eh
New exchange energy                            :    -18.099201597 Eh
Exchange energy change after final integration :      0.000003194 Eh
Total energy after final integration           :   -192.979100769 Eh
             **** ENERGY FILE WAS UPDATED (opt.en.tmp) ****

----------------
TOTAL SCF ENERGY
----------------

Total Energy       :       -192.97910076889869 Eh           -5251.22830 eV

Components:
Nuclear Repulsion  :        114.86857962817258 Eh            3125.73296 eV
Electronic Energy  :       -307.84768359143231 Eh           -8376.96135 eV
One Electron Energy:       -488.99327286795653 Eh          -13306.18343 eV
Two Electron Energy:        181.14558927652425 Eh            4929.22208 eV

Virial components:
Potential Energy   :       -385.51194590760463 Eh          -10490.31337 eV
Kinetic Energy     :        192.53284513870591 Eh            5239.08507 eV
Virial Ratio       :          2.00231781559074

DFT components:
N(Alpha)           :       16.999990622546 electrons
N(Beta)            :       15.999995201537 electrons
N(Total)           :       32.999985824083 electrons
E(X)               :       -8.092434373710 Eh       
E(C)               :       -0.488096241609 Eh       
E(XC)              :       -8.580530615320 Eh       

---------------
SCF CONVERGENCE
---------------

  Last Energy change         ...    6.2502e-09  Tolerance :   1.0000e-08
  Last MAX-Density change    ...    7.4420e-06  Tolerance :   1.0000e-07
  Last RMS-Density change    ...    4.6881e-07  Tolerance :   5.0000e-09
  Last DIIS Error            ...    2.4619e-03  Tolerance :   5.0000e-07
  Last Orbital Gradient      ...    6.3313e-06  Tolerance :   1.0000e-05
  Last Orbital Rotation      ...    3.3162e-05  Tolerance :   1.0000e-05


----------------------
UHF SPIN CONTAMINATION
----------------------

Warning: in a DFT calculation there is little theoretical justification to 
         calculate <S**2> as in Hartree-Fock theory. We will do it anyways
         but you should keep in mind that the values have only limited relevance

Expectation value of <S**2>     :     0.808509
Ideal value S*(S+1) for S=0.5   :     0.750000
Deviation                       :     0.058509

----------------
ORBITAL ENERGIES
----------------
                 SPIN UP ORBITALS
  NO   OCC          E(Eh)            E(eV) 
   0   1.0000     -20.045825      -545.4746 
   1   1.0000     -10.829316      -294.6807 
   2   1.0000     -10.814478      -294.2769 
   3   1.0000     -10.809970      -294.1542 
   4   1.0000      -1.219671       -33.1889 
   5   1.0000      -0.971265       -26.4295 
   6   1.0000      -0.843859       -22.9626 
   7   1.0000      -0.694255       -18.8916 
   8   1.0000      -0.584658       -15.9093 
   9   1.0000      -0.579546       -15.7702 
  10   1.0000      -0.546196       -14.8628 
  11   1.0000      -0.526171       -14.3178 
  12   1.0000      -0.513357       -13.9691 
  13   1.0000      -0.471274       -12.8240 
  14   1.0000      -0.452361       -12.3094 
  15   1.0000      -0.443194       -12.0599 
  16   1.0000      -0.321375        -8.7451 
  17   0.0000       0.091361         2.4861 
  18   0.0000       0.099702         2.7130 
  19   0.0000       0.133581         3.6349 
  20   0.0000       0.146237         3.9793 
  21   0.0000       0.154548         4.2055 
  22   0.0000       0.179820         4.8932 
  23   0.0000       0.187879         5.1124 
  24   0.0000       0.211160         5.7460 
  25   0.0000       0.237199         6.4545 
  26   0.0000       0.269621         7.3368 
  27   0.0000       0.277799         7.5593 

                 SPIN DOWN ORBITALS
  NO   OCC          E(Eh)            E(eV) 
   0   1.0000     -20.012455      -544.5666 
   1   1.0000     -10.822698      -294.5006 
   2   1.0000     -10.818397      -294.3836 
   3   1.0000     -10.810595      -294.1712 
   4   1.0000      -1.105326       -30.0775 
   5   1.0000      -0.962066       -26.1791 
   6   1.0000      -0.847405       -23.0591 
   7   1.0000      -0.688279       -18.7290 
   8   1.0000      -0.582842       -15.8600 
   9   1.0000      -0.548657       -14.9297 
  10   1.0000      -0.522683       -14.2229 
  11   1.0000      -0.511185       -13.9100 
  12   1.0000      -0.470085       -12.7917 
  13   1.0000      -0.445645       -12.1266 
  14   1.0000      -0.412979       -11.2377 
  15   1.0000      -0.335220        -9.1218 
  16   0.0000       0.016554         0.4504 
  17   0.0000       0.095614         2.6018 
  18   0.0000       0.111335         3.0296 
  19   0.0000       0.136454         3.7131 
  20   0.0000       0.149546         4.0694 
  21   0.0000       0.154092         4.1931 
  22   0.0000       0.181012         4.9256 
  23   0.0000       0.189439         5.1549 
  24   0.0000       0.212245         5.7755 
  25   0.0000       0.238302         6.4845 
  26   0.0000       0.270018         7.3476 
*Only the first 10 virtual orbitals were printed.

                    ********************************
                    * MULLIKEN POPULATION ANALYSIS *
                    ********************************

--------------------------------------------
MULLIKEN ATOMIC CHARGES AND SPIN POPULATIONS
--------------------------------------------
   0 C :   -0.170513    0.374345
   1 H :    0.111435   -0.026785
   2 C :   -0.188938   -0.286737
   3 H :    0.116172    0.017245
   4 H :    0.105592    0.021484
   5 C :   -0.180414   -0.035974
   6 H :    0.086027    0.001026
   7 H :    0.076847    0.013877
   8 H :    0.090222    0.012903
   9 O :   -0.283384    0.935667
  10 H :    0.236954   -0.027051
Sum of atomic charges         :    0.0000000
Sum of atomic spin populations:    1.0000000

-----------------------------------------------------
MULLIKEN REDUCED ORBITAL CHARGES AND SPIN POPULATIONS
-----------------------------------------------------
CHARGE
  0 C s       :     3.195795  s :     3.195795
      pz      :     0.985926  p :     2.852337
      px      :     0.916721
      py      :     0.949691
      dz2     :     0.039856  d :     0.115110
      dxz     :     0.028437
      dyz     :     0.004119
      dx2y2   :     0.014782
      dxy     :     0.027916
      f0      :     0.000929  f :     0.007271
      f+1     :     0.001841
      f-1     :     0.000035
      f+2     :     0.001147
      f-2     :     0.000840
      f+3     :     0.000994
      f-3     :     0.001485

  1 H s       :     0.850254  s :     0.850254
      pz      :     0.018033  p :     0.036306
      px      :     0.008538
      py      :     0.009736
      dz2     :     0.000507  d :     0.002005
      dxz     :     0.000863
      dyz     :     0.000606
      dx2y2   :     0.000010
      dxy     :     0.000018

  2 C s       :     3.144305  s :     3.144305
      pz      :     1.033977  p :     2.952304
      px      :     0.984093
      py      :     0.934234
      dz2     :     0.029565  d :     0.087011
      dxz     :     0.022335
      dyz     :     0.005513
      dx2y2   :     0.015416
      dxy     :     0.014181
      f0      :     0.000792  f :     0.005319
      f+1     :     0.001104
      f-1     :     0.000068
      f+2     :     0.000808
      f-2     :     0.000606
      f+3     :     0.000783
      f-3     :     0.001158

  3 H s       :     0.844860  s :     0.844860
      pz      :     0.009977  p :     0.037132
      px      :     0.017373
      py      :     0.009781
      dz2     :     0.000388  d :     0.001836
      dxz     :     0.000458
      dyz     :     0.000075
      dx2y2   :     0.000390
      dxy     :     0.000526

  4 H s       :     0.852494  s :     0.852494
      pz      :     0.022868  p :     0.039938
      px      :     0.007976
      py      :     0.009094
      dz2     :     0.000580  d :     0.001976
      dxz     :     0.000780
      dyz     :     0.000585
      dx2y2   :     0.000013
      dxy     :     0.000018

  5 C s       :     3.126734  s :     3.126734
      pz      :     1.014370  p :     2.970492
      px      :     0.921565
      py      :     1.034557
      dz2     :     0.024525  d :     0.079461
      dxz     :     0.011195
      dyz     :     0.005678
      dx2y2   :     0.008491
      dxy     :     0.029573
      f0      :     0.000766  f :     0.003726
      f+1     :     0.000674
      f-1     :     0.000065
      f+2     :     0.000516
      f-2     :     0.000326
      f+3     :     0.000816
      f-3     :     0.000564

  6 H s       :     0.876245  s :     0.876245
      pz      :     0.018345  p :     0.035763
      px      :     0.008647
      py      :     0.008771
      dz2     :     0.000557  d :     0.001965
      dxz     :     0.000737
      dyz     :     0.000630
      dx2y2   :     0.000011
      dxy     :     0.000029

  7 H s       :     0.883637  s :     0.883637
      pz      :     0.009180  p :     0.037568
      px      :     0.012094
      py      :     0.016294
      dz2     :     0.000246  d :     0.001949
      dxz     :     0.000206
      dyz     :     0.000390
      dx2y2   :     0.000644
      dxy     :     0.000463

  8 H s       :     0.871323  s :     0.871323
      pz      :     0.008987  p :     0.036547
      px      :     0.011621
      py      :     0.015939
      dz2     :     0.000232  d :     0.001908
      dxz     :     0.000215
      dyz     :     0.000375
      dx2y2   :     0.000651
      dxy     :     0.000434

  9 O s       :     3.889335  s :     3.889335
      pz      :     1.462641  p :     4.381319
      px      :     1.854857
      py      :     1.063821
      dz2     :     0.005471  d :     0.012323
      dxz     :     0.003423
      dyz     :     0.001609
      dx2y2   :     0.001421
      dxy     :     0.000398
      f0      :     0.000073  f :     0.000407
      f+1     :     0.000197
      f-1     :     0.000016
      f+2     :     0.000030
      f-2     :     0.000028
      f+3     :     0.000032
      f-3     :     0.000032

 10 H s       :     0.674967  s :     0.674967
      pz      :     0.027981  p :     0.079950
      px      :     0.035010
      py      :     0.016959
      dz2     :     0.003175  d :     0.008129
      dxz     :     0.002772
      dyz     :     0.001307
      dx2y2   :     0.000535
      dxy     :     0.000340


SPIN
  0 C s       :     0.035049  s :     0.035049
      pz      :     0.031214  p :     0.341787
      px      :     0.026473
      py      :     0.284100
      dz2     :     0.001123  d :    -0.001682
      dxz     :     0.000375
      dyz     :    -0.000882
      dx2y2   :    -0.000815
      dxy     :    -0.001483
      f0      :    -0.000100  f :    -0.000809
      f+1     :    -0.000010
      f-1     :    -0.000013
      f+2     :    -0.000125
      f-2     :    -0.000092
      f+3     :    -0.000204
      f-3     :    -0.000265

  1 H s       :    -0.030032  s :    -0.030032
      pz      :    -0.000202  p :     0.003010
      px      :    -0.000097
      py      :     0.003308
      dz2     :     0.000006  d :     0.000237
      dxz     :     0.000011
      dyz     :     0.000223
      dx2y2   :     0.000001
      dxy     :    -0.000003

  2 C s       :    -0.029250  s :    -0.029250
      pz      :    -0.026756  p :    -0.266258
      px      :    -0.026061
      py      :    -0.213441
      dz2     :    -0.000096  d :     0.007600
      dxz     :    -0.000630
      dyz     :     0.002060
      dx2y2   :     0.002313
      dxy     :     0.003952
      f0      :     0.000119  f :     0.001171
      f+1     :     0.000027
      f-1     :     0.000049
      f+2     :     0.000077
      f-2     :     0.000211
      f+3     :     0.000109
      f-3     :     0.000579

  3 H s       :     0.020377  s :     0.020377
      pz      :    -0.000282  p :    -0.002968
      px      :    -0.000179
      py      :    -0.002507
      dz2     :    -0.000006  d :    -0.000164
      dxz     :    -0.000012
      dyz     :    -0.000041
      dx2y2   :     0.000007
      dxy     :    -0.000111

  4 H s       :     0.024461  s :     0.024461
      pz      :     0.000002  p :    -0.002824
      px      :     0.000057
      py      :    -0.002883
      dz2     :     0.000012  d :    -0.000153
      dxz     :    -0.000004
      dyz     :    -0.000163
      dx2y2   :    -0.000001
      dxy     :     0.000003

  5 C s       :    -0.007624  s :    -0.007624
      pz      :    -0.006234  p :    -0.034358
      px      :    -0.015826
      py      :    -0.012298
      dz2     :     0.000075  d :     0.005649
      dxz     :     0.000091
      dyz     :     0.000242
      dx2y2   :     0.000062
      dxy     :     0.005178
      f0      :     0.000006  f :     0.000359
      f+1     :     0.000018
      f-1     :     0.000004
      f+2     :     0.000007
      f-2     :     0.000157
      f+3     :     0.000022
      f-3     :     0.000147

  6 H s       :     0.001307  s :     0.001307
      pz      :    -0.000137  p :    -0.000273
      px      :    -0.000112
      py      :    -0.000023
      dz2     :    -0.000001  d :    -0.000007
      dxz     :    -0.000006
      dyz     :    -0.000003
      dx2y2   :     0.000000
      dxy     :     0.000003

  7 H s       :     0.013900  s :     0.013900
      pz      :     0.000125  p :    -0.000032
      px      :    -0.000191
      py      :     0.000035
      dz2     :    -0.000000  d :     0.000009
      dxz     :     0.000003
      dyz     :     0.000002
      dx2y2   :     0.000002
      dxy     :     0.000002

  8 H s       :     0.012860  s :     0.012860
      pz      :     0.000113  p :     0.000034
      px      :    -0.000186
      py      :     0.000107
      dz2     :     0.000000  d :     0.000010
      dxz     :     0.000002
      dyz     :     0.000002
      dx2y2   :     0.000002
      dxy     :     0.000002

  9 O s       :     0.014046  s :     0.014046
      pz      :     0.041012  p :     0.921783
      px      :     0.021114
      py      :     0.859657
      dz2     :    -0.000157  d :    -0.000005
      dxz     :     0.000092
      dyz     :     0.000179
      dx2y2   :    -0.000117
      dxy     :    -0.000000
      f0      :    -0.000107  f :    -0.000157
      f+1     :    -0.000013
      f-1     :    -0.000062
      f+2     :    -0.000011
      f-2     :    -0.000017
      f+3     :     0.000026
      f-3     :     0.000026

 10 H s       :    -0.032819  s :    -0.032819
      pz      :    -0.001266  p :     0.004630
      px      :    -0.002127
      py      :     0.008022
      dz2     :    -0.000023  d :     0.001139
      dxz     :     0.000045
      dyz     :     0.000973
      dx2y2   :    -0.000028
      dxy     :     0.000172



                     *******************************
                     * LOEWDIN POPULATION ANALYSIS *
                     *******************************

-------------------------------------------
LOEWDIN ATOMIC CHARGES AND SPIN POPULATIONS
-------------------------------------------
   0 C :   -0.039697    0.205546
   1 H :    0.003397    0.013182
   2 C :    0.028017   -0.117996
   3 H :   -0.001182   -0.009329
   4 H :    0.002521   -0.007981
   5 C :   -0.000133    0.013357
   6 H :    0.017659   -0.000312
   7 H :    0.011920    0.006725
   8 H :    0.015961    0.006650
   9 O :    0.131747    0.850504
  10 H :   -0.170209    0.039654

----------------------------------------------------
LOEWDIN REDUCED ORBITAL CHARGES AND SPIN POPULATIONS
----------------------------------------------------
CHARGE
  0 C s       :     2.749241  s :     2.749241
      pz      :     1.006186  p :     2.851153
      px      :     1.023407
      py      :     0.821561
      dz2     :     0.128630  d :     0.399988
      dxz     :     0.108397
      dyz     :     0.013110
      dx2y2   :     0.064845
      dxy     :     0.085006
      f0      :     0.004534  f :     0.039314
      f+1     :     0.013395
      f-1     :     0.000151
      f+2     :     0.005753
      f-2     :     0.005649
      f+3     :     0.005017
      f-3     :     0.004816

  1 H s       :     0.815777  s :     0.815777
      pz      :     0.075311  p :     0.152634
      px      :     0.035110
      py      :     0.042213
      dz2     :     0.010451  d :     0.028193
      dxz     :     0.009513
      dyz     :     0.008123
      dx2y2   :     0.000052
      dxy     :     0.000054

  2 C s       :     2.764375  s :     2.764375
      pz      :     1.023684  p :     2.884386
      px      :     1.040156
      py      :     0.820546
      dz2     :     0.095909  d :     0.294710
      dxz     :     0.088304
      dyz     :     0.016196
      dx2y2   :     0.057862
      dxy     :     0.036439
      f0      :     0.004539  f :     0.028513
      f+1     :     0.007938
      f-1     :     0.000333
      f+2     :     0.005099
      f-2     :     0.003580
      f+3     :     0.004060
      f-3     :     0.002964

  3 H s       :     0.821575  s :     0.821575
      pz      :     0.046613  p :     0.151686
      px      :     0.063233
      py      :     0.041840
      dz2     :     0.005402  d :     0.027921
      dxz     :     0.008386
      dyz     :     0.001582
      dx2y2   :     0.006090
      dxy     :     0.006461

  4 H s       :     0.818924  s :     0.818924
      pz      :     0.076705  p :     0.150256
      px      :     0.033329
      py      :     0.040223
      dz2     :     0.010595  d :     0.028299
      dxz     :     0.009518
      dyz     :     0.008012
      dx2y2   :     0.000087
      dxy     :     0.000086

  5 C s       :     2.698545  s :     2.698545
      pz      :     0.998275  p :     2.967711
      px      :     0.963066
      py      :     1.006370
      dz2     :     0.093089  d :     0.303467
      dxz     :     0.052806
      dyz     :     0.017589
      dx2y2   :     0.042556
      dxy     :     0.097426
      f0      :     0.004952  f :     0.030410
      f+1     :     0.004747
      f-1     :     0.001481
      f+2     :     0.005716
      f-2     :     0.004201
      f+3     :     0.005992
      f-3     :     0.003321

  6 H s       :     0.808452  s :     0.808452
      pz      :     0.069747  p :     0.144669
      px      :     0.035985
      py      :     0.038938
      dz2     :     0.009892  d :     0.029220
      dxz     :     0.009441
      dyz     :     0.009456
      dx2y2   :     0.000058
      dxy     :     0.000374

  7 H s       :     0.810757  s :     0.810757
      pz      :     0.041302  p :     0.148472
      px      :     0.047493
      py      :     0.059677
      dz2     :     0.003877  d :     0.028851
      dxz     :     0.003044
      dyz     :     0.005999
      dx2y2   :     0.008660
      dxy     :     0.007270

  8 H s       :     0.809826  s :     0.809826
      pz      :     0.040250  p :     0.146027
      px      :     0.047574
      py      :     0.058203
      dz2     :     0.003655  d :     0.028186
      dxz     :     0.003161
      dyz     :     0.005653
      dx2y2   :     0.008658
      dxy     :     0.007059

  9 O s       :     3.527263  s :     3.527263
      pz      :     1.531454  p :     4.318768
      px      :     1.767445
      py      :     1.019869
      dz2     :     0.009695  d :     0.020633
      dxz     :     0.005930
      dyz     :     0.002198
      dx2y2   :     0.002306
      dxy     :     0.000505
      f0      :     0.000412  f :     0.001589
      f+1     :     0.000548
      f-1     :     0.000278
      f+2     :     0.000115
      f-2     :     0.000098
      f+3     :     0.000064
      f-3     :     0.000074

 10 H s       :     0.715507  s :     0.715507
      pz      :     0.175256  p :     0.360193
      px      :     0.124223
      py      :     0.060713
      dz2     :     0.034249  d :     0.094509
      dxz     :     0.030635
      dyz     :     0.019161
      dx2y2   :     0.005886
      dxy     :     0.004578


SPIN
  0 C s       :     0.008756  s :     0.008756
      pz      :     0.006519  p :     0.217720
      px      :     0.007354
      py      :     0.203847
      dz2     :    -0.001831  d :    -0.018063
      dxz     :    -0.001280
      dyz     :    -0.003323
      dx2y2   :    -0.001030
      dxy     :    -0.010599
      f0      :    -0.000269  f :    -0.002868
      f+1     :    -0.000088
      f-1     :     0.000091
      f+2     :    -0.000216
      f-2     :    -0.000968
      f+3     :    -0.000242
      f-3     :    -0.001176

  1 H s       :    -0.008082  s :    -0.008082
      pz      :     0.002351  p :     0.017830
      px      :     0.000349
      py      :     0.015130
      dz2     :     0.000230  d :     0.003434
      dxz     :     0.000157
      dyz     :     0.003049
      dx2y2   :     0.000003
      dxy     :    -0.000004

  2 C s       :    -0.003658  s :    -0.003658
      pz      :    -0.004879  p :    -0.153158
      px      :    -0.006383
      py      :    -0.141896
      dz2     :     0.004307  d :     0.034418
      dxz     :     0.001721
      dyz     :     0.007002
      dx2y2   :     0.007354
      dxy     :     0.014033
      f0      :     0.000318  f :     0.004402
      f+1     :     0.000142
      f-1     :    -0.000042
      f+2     :     0.000197
      f-2     :     0.001506
      f+3     :     0.000152
      f-3     :     0.002129

  3 H s       :     0.005662  s :     0.005662
      pz      :    -0.000657  p :    -0.012752
      px      :    -0.001337
      py      :    -0.010758
      dz2     :    -0.000088  d :    -0.002239
      dxz     :    -0.000134
      dyz     :    -0.000513
      dx2y2   :    -0.000065
      dxy     :    -0.001438

  4 H s       :     0.007824  s :     0.007824
      pz      :    -0.001589  p :    -0.013587
      px      :    -0.000417
      py      :    -0.011581
      dz2     :    -0.000087  d :    -0.002218
      dxz     :    -0.000146
      dyz     :    -0.001983
      dx2y2   :    -0.000007
      dxy     :     0.000005

  5 C s       :    -0.001370  s :    -0.001370
      pz      :    -0.002243  p :    -0.010487
      px      :    -0.005690
      py      :    -0.002555
      dz2     :     0.000739  d :     0.022777
      dxz     :     0.001039
      dyz     :     0.001381
      dx2y2   :     0.000755
      dxy     :     0.018864
      f0      :     0.000044  f :     0.002437
      f+1     :     0.000076
      f-1     :     0.000049
      f+2     :     0.000104
      f-2     :     0.001099
      f+3     :     0.000110
      f-3     :     0.000954

  6 H s       :     0.000557  s :     0.000557
      pz      :    -0.000207  p :    -0.000715
      px      :    -0.000450
      py      :    -0.000058
      dz2     :    -0.000027  d :    -0.000153
      dxz     :    -0.000108
      dyz     :    -0.000037
      dx2y2   :    -0.000001
      dxy     :     0.000020

  7 H s       :     0.007294  s :     0.007294
      pz      :    -0.000005  p :    -0.000393
      px      :    -0.000359
      py      :    -0.000029
      dz2     :    -0.000018  d :    -0.000177
      dxz     :     0.000000
      dyz     :    -0.000038
      dx2y2   :    -0.000064
      dxy     :    -0.000057

  8 H s       :     0.007293  s :     0.007293
      pz      :    -0.000001  p :    -0.000479
      px      :    -0.000335
      py      :    -0.000144
      dz2     :    -0.000018  d :    -0.000163
      dxz     :     0.000002
      dyz     :    -0.000034
      dx2y2   :    -0.000070
      dxy     :    -0.000043

  9 O s       :     0.009843  s :     0.009843
      pz      :     0.031607  p :     0.841473
      px      :     0.019886
      py      :     0.789980
      dz2     :    -0.000438  d :    -0.000965
      dxz     :    -0.000296
      dyz     :     0.000134
      dx2y2   :    -0.000421
      dxy     :     0.000055
      f0      :    -0.000029  f :     0.000154
      f+1     :    -0.000021
      f-1     :     0.000098
      f+2     :    -0.000008
      f-2     :     0.000015
      f+3     :     0.000058
      f-3     :     0.000041

 10 H s       :    -0.022288  s :    -0.022288
      pz      :     0.003906  p :     0.039549
      px      :    -0.002028
      py      :     0.037670
      dz2     :     0.001789  d :     0.022393
      dxz     :     0.001446
      dyz     :     0.015774
      dx2y2   :     0.000755
      dxy     :     0.002629



                      *****************************
                      * MAYER POPULATION ANALYSIS *
                      *****************************

  NA   - Mulliken gross atomic population
  ZA   - Total nuclear charge
  QA   - Mulliken gross atomic charge
  VA   - Mayer's total valence
  BVA  - Mayer's bonded valence
  FA   - Mayer's free valence

  ATOM       NA         ZA         QA         VA         BVA        FA
  0 C      6.1705     6.0000    -0.1705     3.8446     3.7573     0.0873
  1 H      0.8886     1.0000     0.1114     0.9987     0.9978     0.0009
  2 C      6.1889     6.0000    -0.1889     3.9264     3.8782     0.0482
  3 H      0.8838     1.0000     0.1162     1.0071     1.0066     0.0004
  4 H      0.8944     1.0000     0.1056     1.0159     1.0153     0.0006
  5 C      6.1804     6.0000    -0.1804     3.9263     3.9256     0.0007
  6 H      0.9140     1.0000     0.0860     1.0083     1.0083     0.0000
  7 H      0.9232     1.0000     0.0768     1.0025     1.0023     0.0002
  8 H      0.9098     1.0000     0.0902     0.9969     0.9967     0.0002
  9 O      8.2834     8.0000    -0.2834     1.9746     1.1428     0.8318
 10 H      0.7630     1.0000     0.2370     1.0073     1.0058     0.0015

  Mayer bond orders larger than 0.100000
B(  0-C ,  1-H ) :   0.9909 B(  0-C ,  2-C ) :   1.7785 B(  0-C ,  5-C ) :   0.9514 
B(  2-C ,  3-H ) :   0.9998 B(  2-C ,  4-H ) :   1.0035 B(  5-C ,  6-H ) :   0.9967 
B(  5-C ,  7-H ) :   0.9855 B(  5-C ,  8-H ) :   0.9899 B(  9-O , 10-H ) :   0.9930 


-------
TIMINGS
-------

Total SCF time: 0 days 0 hours 0 min 13 sec 

Total time                  ....      13.899 sec
Sum of individual times     ....      13.408 sec  ( 96.5%)

SCF preparation             ....       0.562 sec  (  4.0%)
Fock matrix formation       ....      11.779 sec  ( 84.7%)
  Startup                   ....       0.032 sec  (  0.3% of F)
  Split-RI-J                ....       0.829 sec  (  7.0% of F)
  Chain of spheres X        ....       8.155 sec  ( 69.2% of F)
  XC integration            ....       2.796 sec  ( 23.7% of F)
    XC Preparation          ....       0.000 sec  (  0.0% of XC)
    Basis function eval.    ....       0.641 sec  ( 22.9% of XC)
    Density eval.           ....       0.670 sec  ( 24.0% of XC)
    XC-Functional eval.     ....       0.165 sec  (  5.9% of XC)
    XC-Potential eval.      ....       0.954 sec  ( 34.1% of XC)
Diagonalization             ....       0.000 sec  (  0.0%)
Density matrix formation    ....       0.174 sec  (  1.3%)
Total Energy calculation    ....       0.085 sec  (  0.6%)
Population analysis         ....       0.028 sec  (  0.2%)
Orbital Transformation      ....       0.055 sec  (  0.4%)
Orbital Orthonormalization  ....       0.000 sec  (  0.0%)
DIIS solution               ....       0.344 sec  (  2.5%)
SOSCF solution              ....       0.377 sec  (  2.7%)
Finished LeanSCF after  13.9 sec

Maximum memory used throughout the entire LEANSCF-calculation: 18.2 MB


           ************************************************************
           *        Program running with 8 parallel MPI-processes     *
           *              working on a common directory               *
           ************************************************************

------------------------------------------------------------------------------
                                ORCA  MP2 
------------------------------------------------------------------------------

Freezing NCore=8 chemical core electrons

----------------------
RI-MP2 ENERGY+GRADIENT
----------------------
Dimension of the orbital basis            ...  222
Dimension of the AuxC basis               ...  514
Memory devoted to MP2                     ... 10000 MB   
Data format for matrix containers         ... DOUBLE
Compression type for matrix containers    ... UNCOMPRESSED
Scaling for aa/bb pairs                   ...   5.660e-02
Scaling for ab pairs                      ...   5.935e-01
Overall scaling of the MP2 energy         ...   1.000e+00

-----------------------
SHARK RI TRANSFORMATION
-----------------------

Number of basis functions                ...    222
Number of aux functions                  ...    514
Number of operators                      ...      2
Generation of IJK                        ... YES
Generation of IAK                        ... YES
Generation of ABK                        ... NO
Orbital Range Operator  0:    0-  16 to   17- 221

Orbital Range Operator  1:    0-  15 to   16- 221

Aux basis identifier                     ...   AUXC
Contraction scheme used                  ... SEGMENTED
Do orthogonalization                     ... YES
All operator combinations                ... NO
Transpose (ia|K)                         ... NO
Integral generator used                  ... LIBINT
Starting integral generation + trafo... 
Half trafo (segmented) done. Total time =  0.2 sec. integrals=  0.1 sec trafo=  0.0 sec
Integral generation and half transformation done (  0.2 sec)

Reading or making V^(-1/2)          ... done (  0.0 sec)
Sorting IJK integrals               ... done (  0.0 sec)
Sorting IAK integrals               ... done (  0.1 sec)
Sorting IJK integrals               ... done (  0.1 sec)
Sorting IAK integrals               ... done (  0.1 sec)

SHARK RI integral transformation done. Total time =  0.3 sec.

Opening buffers                              ... done
Frozen core precalculation                   ... done

Starting loop over batches of integrals:

Operator 0  - window                       ... (  4- 16)x( 17-221)
Operator 0  - Memory available             ... 10000 MB
Operator 0  - Memory needed per MO         ...   0.8 MB
Operator 0  - Number of orbitals per batch ... 2
Operator 0  - Number of batches            ... 1

OPERATOR  0   PASS   0:  MOs     4 ...    5 +    6 ...    7 +    8 ...    9 +   10 ...   11
                            +   12 ...   13 +   14 ...   15 +   16 ...   16
  Reading integrals       ... ok
Closing buffer GIPV ( 0.01 GB; CompressionRatio= 1.00)

Operator 1  - window                       ... (  4- 15)x( 16-221)
Operator 1  - Memory available             ... 10000 MB
Operator 1  - Memory needed per MO         ...   0.8 MB
Operator 1  - Number of orbitals per batch ... 2
Operator 1  - Number of batches            ... 1

OPERATOR  1   PASS   0:  MOs     4 ...    5 +    6 ...    7 +    8 ...    9 +   10 ...   11
                            +   12 ...   13 +   14 ...   15
  Reading integrals       ... ok
Closing buffer GIPV ( 0.01 GB; CompressionRatio= 1.00)
Time spent in pair loops =     0.417 sec
Deleting buffers (Ka|jb) ...done

Spin-scaled correlation energy components}
 E2 for alpha/alpha pairs :     -0.005690546 Eh
 E2 for beta/beta   pairs :     -0.004821295 Eh
 E2 for alpha/beta  pairs :     -0.370042217 Eh


-----------------------------------------------
 RI-MP2 CORRELATION ENERGY:     -0.380554058 Eh
-----------------------------------------------


---------------------
MP2 DENSITY FORMATION
---------------------

Completing the external part of the density      ... done
Storing the unrelaxed density                    ... done

Re-sorting 3-index density container for op 0    ... done
Re-sorting 3-index density container for op 1    ... done
Computing external part of the Lagrangian        ... done
Calculating the xc-kernel                        ... done
Calculating G(D)                                 ... done
Completing the Lagrangian                        ... done
Solving the Z-vector equations                   ... Using XC Grid                  ... (opt.grid_cpscf.tmp) 
Recalculating density on grid  ... (opt.grho_cpscf0.tmp) done
Calculating the xc-kernel      ... (opt.fxc_cpscf0.tmp) done

-------------------
SHARK CP-SCF DRIVER
-------------------

Dimension of the orbital basis          ...    222
Dimension of the CPSCF-problem          ...   6781
Number of operators                     ...      2
Max. number of iterations               ...    128
Convergence Tolerance                   ... 1.0e-04
Number of perturbations                 ...      1
Perturbation type                       ... REAL

----------------------------
POPLE LINEAR EQUATION SOLVER
----------------------------

  ITERATION   0:   ||err||_max =   5.7401e-02 (   0.2 sec)
  ITERATION   1:   ||err||_max =   5.3107e-02 (   0.3 sec)
  ITERATION   2:   ||err||_max =   3.5587e-02 (   0.3 sec)
  ITERATION   3:   ||err||_max =   2.5539e-02 (   0.3 sec)
  ITERATION   4:   ||err||_max =   9.8680e-03 (   0.3 sec)
  ITERATION   5:   ||err||_max =   4.1346e-03 (   0.3 sec)
  ITERATION   6:   ||err||_max =   3.3974e-03 (   0.3 sec)
  ITERATION   7:   ||err||_max =   4.8674e-03 (   0.3 sec)
  ITERATION   8:   ||err||_max =   3.6300e-03 (   0.3 sec)
  ITERATION   9:   ||err||_max =   1.6811e-03 (   0.3 sec)
  ITERATION  10:   ||err||_max =   7.3753e-04 (   0.3 sec)
  ITERATION  11:   ||err||_max =   3.8983e-04 (   0.3 sec)
  ITERATION  12:   ||err||_max =   1.9211e-04 (   0.3 sec)
  ITERATION  13:   ||err||_max =   7.4638e-05 (   0.3 sec)
done
[...]
W(virtual)                :    0.016 sec (  0.2%)
W(internal)               :    0.044 sec (  0.4%)
L(virtual)                :    0.079 sec (  0.7%)
L(internal)               :    0.003 sec (  0.0%)
XC kernel                 :    0.017 sec (  0.2%)
G(D)                      :    0.590 sec (  5.5%)
G(Z)                      :    0.590 sec (  5.5%)
Z-vector solution         :    3.950 sec ( 36.8%)
3-index derivative        :    0.192 sec (  1.8%)
2-index derivative        :    0.038 sec (  0.4%)
Fock matrix gradient      :    4.184 sec ( 39.0%)


---------------------------------------
MP2 TOTAL ENERGY:     -193.361847616 Eh
---------------------------------------

The final MP2 gradient
  0:   0.00045249  -0.00031380  -0.00043105
  1:  -0.00002946  -0.00004195   0.00039914
  2:  -0.00124240   0.00010627  -0.00008183
  3:   0.00073963  -0.00015889   0.00045836
  4:  -0.00002030   0.00005679  -0.00059320
  5:   0.00007022   0.00006631  -0.00001974
  6:   0.00003461   0.00004281   0.00003848
  7:   0.00002566  -0.00000118   0.00000985
  8:  -0.00002378   0.00001369  -0.00000892
  9:   0.00041788   0.00028238  -0.00041417
 10:  -0.00040528  -0.00007068   0.00064097

-----------------------------------
NORM OF THE MP2 GRADIENT:  0.002091
-----------------------------------

Maximum memory used throughout the entire MP2-calculation: 38.5 MB


-------------------------------------------------------------------------------
                          DFT DISPERSION CORRECTION                            
                                                                               
                                DFTD4 V3.4.0                                   
-------------------------------------------------------------------------------
-------------------------   ----------------
Dispersion correction           -0.003863414
-------------------------   ----------------


-------------------------   --------------------
FINAL SINGLE POINT ENERGY      -193.365711029568
-------------------------   --------------------

------------------------------------------------------------------------------
                         ORCA GEOMETRY RELAXATION STEP
------------------------------------------------------------------------------

Reading the OPT-File                    .... done
Getting information on internals        .... done
Copying old internal coords+grads       .... done
Making the new internal coordinates     .... (2022 redundants) done
Validating the new internal coordinates .... (2022 redundants) done
Calculating the B-matrix                .... done
Calculating the G,G- and P matrices     .... done
Transforming gradient to internals      .... done
Projecting the internal gradient        .... done
Number of atoms                         ....  11
Number of internal coordinates          ....  64
Current Energy                          ....  -193.365711030 Eh
Current gradient norm                   ....     0.002090988 Eh/bohr
Maximum allowed component of the step   ....  0.300
Current trust radius                    ....  0.100
Updating the Hessian (Bofill)           .... done
Diagonalizing the Hessian               .... done
Dimension of the hessian                ....  64
Lowest eigenvalues of the Hessian:
 -0.000019023  0.000231953  0.001637438  0.002259606  0.002563116
WARNING! Eigenvalue   1 too small, replaced by -0.000100000
Hessian has   1 negative eigenvalues
Taking P-RFO step
Searching for lambda that maximizes along the lowest mode
TS mode is mode number   0 with eigenvalue  -0.00010000 and components:
   1.   -0.00036151
   2.   -0.00043609
   3.    0.00022893
   4.    0.00044244
   5.    0.00149402
   6.   -0.00011187
   7.    0.00070473
   8.   -0.00001925
   9.    0.42848059
  10.    0.32748910
  11.   -0.06226642
  12.    0.25196541
  13.    0.13437277
  14.    0.06796393
  15.   -0.23262350
  16.    0.00055411
  17.    0.45492436
  18.    0.32738320
  19.   -0.01457069
  20.   -0.10520693
  21.   -0.00097059
  22.    0.13564068
  23.   -0.00184966
  24.    0.00299931
  25.   -0.14977573
  26.   -0.00114915
  27.    0.10928514
  28.    0.00375473
  29.   -0.00454722
  30.    0.04400471
  31.    0.00077112
  32.   -0.00284216
  33.    0.00049613
  34.   -0.00103016
  35.   -0.00089330
  36.    0.00330806
  37.   -0.02943402
  38.   -0.09507385
  39.   -0.09123434
  40.    0.00150196
  41.    0.14963442
  42.   -0.00543320
  43.    0.15116042
  44.   -0.14965846
  45.   -0.00002404
  46.   -0.00695921
  47.   -0.15659363
  48.    0.10191339
  49.    0.00839339
  50.    0.00654451
  51.    0.10032477
  52.    0.00680478
  53.    0.00450428
  54.    0.00495590
  55.   -0.01679631
  56.    0.00690130
  57.    0.09420300
  58.    0.08730169
  59.    0.04680490
  60.    0.04111388
  61.    0.07050538
  62.    0.11182793
  63.    0.06502303
  64.    0.10613691

Lambda that maximizes along the TS mode:       0.00013505
Searching for lambda that minimizes along all other modes
In cycle   1: lambdaN =  -0.00011980   step =   0.00011980
In cycle   2: lambdaN =  -0.00014794   step =   0.00002814
In cycle   3: lambdaN =  -0.00014859   step =   0.00000065
In cycle   4: lambdaN =  -0.00014859   step =   0.00000000
Lambda that minimizes along all other modes:  -0.00014859
Calculated stepsize too large (   0.9596 >    0.1000). Scaled with    0.1042.
The final length of the internal step   ....       0.1000
Converting the step to Cartesian space:
 Initial RMS(Int)=    0.0125000000
Transforming coordinates:
 Iter   0:  RMS(Cart)=    0.0116419580 RMS(Int)=    0.0124667202
done
Storing new coordinates                 .... done
The predicted energy change is          ....     0.002010149
Previously predicted energy change      ....     0.107698265
Actually observed energy change         ....    -0.000006406
Ratio of predicted to observed change   ....     0.000059485
New trust radius                        ....     0.100000000

                                .--------------------.
          ----------------------|Geometry convergence|-------------------------
          Item                value                   Tolerance       Converged
          ---------------------------------------------------------------------
          Energy change      -0.0000064065            0.0000050000      NO
          RMS gradient        0.0001710176            0.0001000000      NO
          MAX gradient        0.0008488555            0.0003000000      NO
          RMS step            0.0125000000            0.0020000000      NO
          MAX step            0.0312617377            0.0040000000      NO
          -------------------------------------------------------------------------
          ........................................................
          Max(Bonds)      0.0165      Max(Angles)    0.96
          Max(Dihed)        1.79      Max(Improp)    0.00
          ---------------------------------------------------------------------

The optimization has not yet converged - more geometry cycles are needed


    ---------------------------------------------------------------------------
                         Redundant Internal Coordinates
                            (Angstroem and degrees)

        Definition                    Value    dE/dq     Step     New-Value  comp.(TS mode)
    ----------------------------------------------------------------------------
     1. B(H   1,C   0)                1.0884  0.000433 -0.0000    1.0884   
     2. B(C   2,C   0)                1.3346 -0.000374  0.0001    1.3347   
     3. B(H   3,C   2)                1.0839  0.000849 -0.0001    1.0837   
     4. B(H   4,C   2)                1.0844  0.000472 -0.0001    1.0843   
     5. B(C   5,C   0)                1.4977 -0.000105 -0.0001    1.4976   
     6. B(H   6,C   5)                1.0903 -0.000035  0.0000    1.0903   
     7. B(H   7,C   5)                1.0929 -0.000008 -0.0001    1.0928   
     8. B(H   8,C   5)                1.0933  0.000024 -0.0000    1.0933   
     9. B(O   9,H   3)                3.1578  0.000015 -0.0098    3.1480          0.43
    10. B(O   9,C   0)                2.9666 -0.000030 -0.0165    2.9501          0.33
    11. B(O   9,H   4)                2.8083 -0.000126  0.0054    2.8137   
    12. B(O   9,C   2)                2.7460 -0.000159 -0.0079    2.7381          0.25
    13. B(H  10,C   0)                2.7343 -0.000077 -0.0007    2.7337   
    14. B(H  10,C   2)                2.7938 -0.000047 -0.0003    2.7935   
    15. B(H  10,H   4)                3.2000  0.000293  0.0120    3.2119   
    16. B(H  10,O   9)                0.9695  0.000515 -0.0001    0.9694   
    17. B(H  10,H   1)                2.9816 -0.000084 -0.0143    2.9673          0.45
    18. B(H  10,H   3)                3.0815 -0.000002 -0.0125    3.0690          0.33
    19. A(C   2,C   0,O   9)           67.41 -0.000042    0.35     67.76   
    20. A(C   5,C   0,O   9)           93.73  0.000052    0.15     93.88   
    21. A(C   2,C   0,C   5)          124.59 -0.000087    0.02    124.61   
    22. A(H   1,C   0,O   9)          110.99 -0.000001   -0.58    110.41   
    23. A(H   1,C   0,C   5)          116.62  0.000010    0.00    116.62   
    24. A(H   1,C   0,C   2)          118.79  0.000076   -0.02    118.77   
    25. A(H   4,C   2,O   9)           81.99 -0.000049    0.69     82.68   
    26. A(C   0,C   2,H   4)          121.24  0.000006    0.01    121.24   
    27. A(H   3,C   2,O   9)          102.18 -0.000162   -0.14    102.04   
    28. A(H   3,C   2,H   4)          117.27  0.000046    0.00    117.27   
    29. A(C   0,C   2,H   3)          121.49 -0.000052   -0.00    121.49   
    30. A(C   0,C   2,O   9)           85.93  0.000110   -0.52     85.41   
    31. A(C   0,C   5,H   6)          111.02 -0.000062   -0.00    111.02   
    32. A(H   7,C   5,H   8)          107.10  0.000012    0.03    107.13   
    33. A(H   6,C   5,H   8)          108.69 -0.000010    0.00    108.69   
    34. A(C   0,C   5,H   8)          110.76  0.000040    0.00    110.76   
    35. A(H   6,C   5,H   7)          108.17  0.000045   -0.00    108.17   
    36. A(C   0,C   5,H   7)          110.96 -0.000022   -0.03    110.93   
    37. A(C   0,O   9,C   2)           26.66 -0.000068    0.16     26.83   
    38. A(C   0,O   9,H  10)           66.82 -0.000006    0.96     67.78   
    39. A(C   2,O   9,H  10)           82.71 -0.000007    0.42     83.14   
    40. D(H   4,C   2,C   0,H   1)   -179.56 -0.000034   -0.02   -179.58   
    41. D(O   9,C   2,C   0,C   5)    -78.39 -0.000085   -0.46    -78.85   
    42. D(H   3,C   2,C   0,H   1)      0.56  0.000082   -0.03      0.53   
    43. D(O   9,C   2,C   0,H   1)    102.36 -0.000044   -0.51    101.85   
    44. D(H   4,C   2,C   0,O   9)     78.08  0.000011    0.49     78.57   
    45. D(H   4,C   2,C   0,C   5)     -0.31 -0.000075    0.03     -0.28   
    46. D(H   3,C   2,C   0,C   5)    179.82  0.000041    0.02    179.84   
    47. D(H   3,C   2,C   0,O   9)   -101.80  0.000126    0.48   -101.31   
    48. D(H   7,C   5,C   0,O   9)     56.40 -0.000002   -0.58     55.82   
    49. D(H   7,C   5,C   0,C   2)    121.40  0.000005   -0.03    121.36   
    50. D(H   7,C   5,C   0,H   1)    -59.33 -0.000034    0.01    -59.32   
    51. D(H   6,C   5,C   0,O   9)    -63.94 -0.000003   -0.55    -64.49   
    52. D(H   6,C   5,C   0,C   2)      1.06  0.000004   -0.01      1.05   
    53. D(H   8,C   5,C   0,H   1)     59.48 -0.000008    0.03     59.51   
    54. D(H   6,C   5,C   0,H   1)   -179.67 -0.000036    0.04   -179.63   
    55. D(C   0,O   9,C   2,H   4)   -122.35  0.000009    0.02   -122.33   
    56. D(C   0,O   9,C   2,H   3)    121.36 -0.000038   -0.12    121.24   
    57. D(H  10,O   9,C   2,H   3)     70.38  0.000061   -1.79     68.59   
    58. D(H  10,O   9,C   2,C   0)    -50.98  0.000099   -1.71    -52.69   
    59. D(C   2,O   9,C   0,C   5)    126.09 -0.000111   -0.13    125.97   
    60. D(C   2,O   9,C   0,H   1)   -113.52 -0.000075   -0.22   -113.74   
    61. D(H  10,O   9,C   2,H   4)   -173.32  0.000108   -1.69   -175.01   
    62. D(H  10,O   9,C   0,C   5)   -110.87  0.000009   -1.69   -112.56   
    63. D(H  10,O   9,C   0,C   2)    123.04  0.000120   -1.56    121.48   
    64. D(H  10,O   9,C   0,H   1)      9.52  0.000045   -1.79      7.74   
    ----------------------------------------------------------------------------

Geometry step timings:
Preparation and reading OPT file:      0.000 s ( 0.358 %)
Internal coordinates            :      0.000 s ( 0.441 %)
B/P matrices and projection     :      0.000 s ( 3.940 %)
Hessian update/contruction      :      0.008 s (69.691 %)
Making the step                 :      0.001 s ( 8.532 %)
Converting the step to Cartesian:      0.000 s ( 0.478 %)
Storing new data                :      0.000 s ( 0.386 %)
Checking convergence            :      0.000 s ( 0.661 %)
Final printing                  :      0.002 s (15.503 %)
Total time                      :      0.011 s

Time for energy+gradient        :     27.146 s
Time for complete geometry iter :     28.697 s




    ----------------------------------------------------------------------------
                                   ERROR !!!
       The optimization did not converge but reached the maximum 
       number of optimization cycles.
       As a subsequent Frequencies calculation has been requested
       ORCA will abort at this point of the run.
       Please restart the calculation with the lowest energy geometry and/or
       a larger maxiter for the geometry optimization.
    ----------------------------------------------------------------------------



--------------------------------
SUGGESTED CITATIONS FOR THIS RUN
--------------------------------

Below you find a list of papers that are relevant to this ORCA run
We neither can nor want to force you to cite these papers, but we appreciate if you do
You receive ORCA, which is the product of decades of hard work by many enthusiastic individuals, for free
The only thing we kindly ask in return is that you cite our papers,
We deeply appreciate it, if you show your appreciation for ORCA by not just citing the generic ORCA reference.

Please note that relegating all ORCA citations to the supporting information does *not* help us.
SI sections are not indexed - citations you put there will not count into any citation statistics
But we need these citations in order to attract the funding resources that allow us to do what we are doing

Therefore, if you are a happy ORCA user, please consider citing a few of the papers listed below in the main body of your paper

In addition to the list printed below, the program has created the file opt.bibtex that contains the list in bibtex format
You can import this file easily into all common literature databanks and citation aid programs


List of essential papers. We consider these as the minimum necessary citations

  1. Neese, F.
     Software update: the ORCA program system, version 6.0
     WIRES Comput. Molec. Sci. 2025 15(1), e70019
     doi.org/10.1002/wcms.7019

List of papers to cite with high priority. The work reported in these papers was absolutely
necessary for this run to complete.
Our perspective: the developers of density functionals and basis sets usually get cited in chemistry papers
Good! But without the algorithms to do something with them, the functionals or basis sets would not do anything.
Hence, in our opinion, the algorithm design and method developments papers are equally worthy of getting cited

  1. Neese, F.
     An improvement of the resolution of the identity approximation for the formation of the Coulomb matrix
     J. Comp. Chem. 2003 24(14), 1740-1747
     doi.org/10.1002/jcc.10318
  2. Neese, F.; Schwabe, T.; Grimme, S.
     Analytic derivatives for perturbatively corrected 'double hybrid' density functionals: Theory, implementation, and applications
     J. Chem. Phys. 2007 126(12), Art. No. 124115
     doi.org/10.1063/1.2712433
  3. Neese, F.; Wennmohs, F.; Hansen, A.; Becker, U.
     Efficient, approximate and parallel Hartree-Fock and hybrid DFT calculations. A 'chain-of-spheres' algorithm for the Hartree-Fock exchange
     Chem. Phys. 2009 356(1-3), 98-109
     doi.org/10.1016/j.chemphys.2008.10.036
  4. Kossmann, S.; Neese, F.
     Efficient Structure Optimization with Second-Order Many-Body Perturbation Theory: The RIJCOSX-MP2 Method
     J. Theo. Comp. Chem. 2010 6 , 2325-2338
     doi.org/10.1021/ct100199k
  5. Caldeweyher, E.; Bannwarth, C.; Grimme, S.
     Extension of the D3 dispersion coefficient model
     J. Chem. Phys. 2017 147 , 034112
     doi.org/10.1063/1.4993215
  6. Caldeweyher, E.; Ehlert, S.; Hansen, A.; Neugebauer, H.; Spicher, S.; Bannwarth, C.; Grimme, S.
     A generally applicable atomic-charge dependent London dispersion correction
     J. Chem. Phys. 2019 150 , 154122
     doi.org/10.1063/1.5090222
  7. Caldeweyher, E.; Mewes, J.; Ehlert, S.; Grimme, S.
     Extension and evaluation of the D4 London-dispersion model for periodic systems
     Phys. Chem. Chem. Phys. 2020 22(16), 8499-8512
     doi.org/10.1039/D0CP00502A
  8. Helmich-Paris, B.; de Souza, B.; Neese, F.; Izsák, R.
     An improved chain of spheres for exchange algorithm
     J. Chem. Phys. 2021 155(10), 104109
     doi.org/10.1063/5.0058766
  9. Neese, F.
     The SHARK Integral Generation and Digestion System
     J. Comp. Chem. 2022 44(3), 381
     doi.org/10.1002/jcc.26942
 10. Wittmann, L.; Gordiy, I.; Friede, M.; Helmich-Paris, B.; Grimme, S.; Hansen, A.; Bursch, M.
     Extension of the D3 and D4 London Dispersion Corrections to the full Actinides Series
     Phys. Chem. Chem. Phys. 2024 26(32), 21379-21394
     doi.org/10.1039/D4CP01514B

List of suggested additional citations. These are papers that are important in the 'surrounding' of 
of this run, or papers that preceded the highly important papers. If you like your results we are grateful for a citation.

  1. Izsak, R.; Neese, F.
     An overlap fitted chain of spheres exchange method
     J. Chem. Phys. 2011 135 , 144105
     doi.org/10.1063/1.3646921
  2. Izsak, R.; Hansen, A.; Neese, F.
     The resolution of identity and chain of spheres approximations for the LPNO-CCSD singles Fock term
     Molec. Phys. 2012 110 , 2413-2417
     doi.org/10.1080/00268976.2012.687466
  3. Neese, F.
     The ORCA program system
     WIRES Comput. Molec. Sci. 2012 2(1), 73-78
     doi.org/10.1002/wcms.81
  4. Izsak, R.; Neese, F.; Klopper, W.
     Robust fitting techniques in the chain of spheres approximation to the Fock exchange: The role of the complementary space
     J. Chem. Phys. 2013 139 , 
     doi.org/10.1063/1.4819264
  5. Neese, F.
     Software update: the ORCA program system, version 4.0
     WIRES Comput. Molec. Sci. 2018 8(1), 1-6
     doi.org/10.1002/wcms.1327
  6. Neese, F.; Wennmohs, F.; Becker, U.; Riplinger, C.
     The ORCA quantum chemistry program package
     J. Chem. Phys. 2020 152(22), 224108
     doi.org/10.1063/5.0004608
  7. Neese, F.
     Software update: The ORCA program system—Version 5.0
     WIRES Comput. Molec. Sci. 2022 12(1), e1606
     doi.org/10.1002/wcms.1606

List of optional additional citations

  1. Neese, F.
     Approximate second-order SCF convergence for spin unrestricted wavefunctions
     Chem. Phys. Lett. 2000 325(1-3), 93-98
     doi.org/10.1016/s0009-2614(00)00662-x

Timings for individual modules:

Sum of individual times          ...     1768.389 sec (=  29.473 min)
Startup calculation              ...      104.989 sec (=   1.750 min)   5.9 %
SCF iterations                   ...      652.829 sec (=  10.880 min)  36.9 %
MP2 module                       ...      625.666 sec (=  10.428 min)  35.4 %
Geometry relaxation              ...        0.656 sec (=   0.011 min)   0.0 %
Numerical frequency calculation  ...      384.249 sec (=   6.404 min)  21.7 %
                             ****ORCA TERMINATED NORMALLY****
TOTAL RUN TIME: 0 days 0 hours 30 minutes 20 seconds 386 msec
