
                                 *****************
                                 * O   R   C   A *
                                 *****************

                                            #,                                       
                                            ###                                      
                                            ####                                     
                                            #####                                    
                                            ######                                   
                                           ########,                                 
                                     ,,################,,,,,                         
                               ,,#################################,,                 
                          ,,##########################################,,             
                       ,#########################################, ''#####,          
                    ,#############################################,,   '####,        
                  ,##################################################,,,,####,       
                ,###########''''           ''''###############################       
              ,#####''   ,,,,##########,,,,          '''####'''          '####       
            ,##' ,,,,###########################,,,                        '##       
           ' ,,###''''                  '''############,,,                           
         ,,##''                                '''############,,,,        ,,,,,,###''
      ,#''                                            '''#######################'''  
     '                                                          ''''####''''         
             ,#######,   #######,   ,#######,      ##                                
            ,#'     '#,  ##    ##  ,#'     '#,    #''#        ,####,    ,#,          
            ##       ##  ##   ,#'  ##            #'  '#       #'       ,# #          
            ##       ##  #######   ##           ,######,      #####,      #          
            '#,     ,#'  ##    ##  '#,     ,#' ,#      #,     #,   #      #          
             '#######'   ##     ##  '#######'  #'      '#     '####' #    #          



                #########################################################
                #                        -***-                          #
                #          Department of theory and spectroscopy        #
                #                                                       #
                #                      Frank Neese                      #
                #                                                       #
                #     Directorship, Architecture, Infrastructure        #
                #                    SHARK, DRIVERS                     #
                #        Core code/Algorithms in most modules           #
                #                                                       #
                #        Max Planck Institute fuer Kohlenforschung      #
                #                Kaiser Wilhelm Platz 1                 #
                #                 D-45470 Muelheim/Ruhr                 #
                #                      Germany                          #
                #                                                       #
                #                  All rights reserved                  #
                #                        -***-                          #
                #########################################################


                         Program Version 6.1.0  -  RELEASE   -
                                (GIT: $679e74b$)
                          ($2025-06-10 18:02:51 +0200$)


 With contributions from (in alphabetic order):
[Max-Planck-Institut fuer Kohlenforschung]                               
  Daniel Aravena         : Magnetic Suceptibility                        
  Michael Atanasov       : Ab Initio Ligand Field Theory (pilot matlab implementation)
  Alexander A. Auer      : GIAO ZORA, VPT2 properties, NMR spectrum      
  Ute Becker             : All parallelization in ORCA, NUMFREQ, NUMCALC 
  Giovanni Bistoni       : ED, misc. LED, open-shell LED, HFLD           
  Dmytro Bykov           : pre 5.0 version of the SCF Hessian            
  Marcos Casanova-Páez   : Triplet and SCS-CIS(D). UHF-(DLPNO)-IP/EA/STEOM-CCSD. UHF-CVS-IP/STEOM-CCSD   
  Vijay G. Chilkuri      : MRCI spin determinant printing, contributions to CSF-ICE 
  Pauline Colinet        : FMM embedding                                 
  Dipayan Datta          : RHF DLPNO-CCSD density                        
  Achintya Kumar Dutta   : EOM-CC, STEOM-CC                              
  Nicolas Foglia         : Exact transition moments, OPA infrastructure, MCD improvements    
  Dmitry Ganyushin       : Spin-Orbit,Spin-Spin,Magnetic field MRCI      
  Miquel Garcia-Rates    : C-PCM and meta-GGA Hessian, CCSD/C-PCM, Gaussian charge scheme 
  Tiago L. C. Gouveia    : GS-ROHF, GS-ROCIS                             
  Yang Guo               : DLPNO-NEVPT2, F12-NEVPT2, CIM, IAO-localization        
  Andreas Hansen         : Spin unrestricted coupled pair/coupled cluster methods 
  Ingolf Harden          : AUTO-CI MPn and infrastructure                
  Benjamin Helmich-Paris : MC-RPA, TRAH-(SCF,CASSCF), AVAS, COSX integrals, SCF dyn. polar., MC-PDFT, srDFT 
  Lee Huntington         : MR-EOM, pCC                                   
  Robert Izsak           : Overlap fitted RIJCOSX, COSX-SCS-MP3, EOM     
  Riya Kayal             : Wick's Theorem for AUTO-CI, AUTO-CI UHF-CCSDT 
  Emily Kempfer          : AUTO-CI RHF CISDT and CCSDT, approximate NEVPT4
  Christian Kollmar      : KDIIS, OOCD, Brueckner-CCSD(T), CCSD density, CASPT2, CASPT2-K, improved NEVPT2 
  Axel Koslowski         : Symmetry handling                             
  Simone Kossmann        : meta-GGA functionals, TD-DFT gradient, OOMP2, (MP2 Hessian; deprecated post 5.0) 
  Lucas Lang             : DCDCAS, Hyperfine gauge corrections, ICE-SOC+SSC
  Marvin Lechner         : AUTO-CI (C++ implementation), FIC-MRCC        
  Spencer Leger          : CASSCF response                               
  Dagmar Lenk            : GEPOL surface, SMD, ORCA-2-JSON               
  Dimitrios Liakos       : Extrapolation schemes; Compound Job, Property file
  Dimitrios Manganas     : Further ROCIS development; embedding schemes. LFT, Crystal Embedding 
  Dimitrios Pantazis     : SARC Basis sets                               
  Anastasios Papadopoulos: AUTO-CI, single reference methods and gradients 
  Taras Petrenko         : pre 6.0 DFT Hessian and TD-DFT gradient,  ECA, NRVS 
  Petra Pikulova         : Analytic Raman intensities                    
  Peter Pinski           : DLPNO-MP2, DLPNO-MP2 Gradient                 
  Shashank Vittal Rao    : ES-AILFT, MagRelax                            
  Christoph Reimann      : Effective Core Potentials                     
  Marius Retegan         : Local ZFS, SOC                                
  Christoph Riplinger    : Optimizer, TS searches, QM/MM, DLPNO-CCSD(T), (RO)-DLPNO pert. Triples 
  Michael Roemelt        : Original ROCIS implementation, recursive CI coupling coefficients
  Masaaki Saitow         : Open-shell DLPNO-CCSD energy and density      
  Barbara Sandhoefer     : DKH picture change effects                    
  Yorick L. A. Schmerwitz: GMF and freeze-and-release deltaSCF, NEB S-IDPP initial path                    
  Kantharuban Sivalingam : CASSCF convergence/infrastructure, NEVPT2, NEVPT3, NEVPT4(SD), FIC-MRCI and CEPA variants
  Bernardo de Souza      : ESD, SOC TD-DFT                               
  Georgi L. Stoychev     : AutoAux, RI-MP2 NMR, DLPNO-MP2 response, X2C  
  Van Anh Tran           : RI-MP2 g-tensors                              
  Willem Van den Heuvel  : Paramagnetic NMR                              
  Zikuan Wang            : NOTCH, Electric field optimization            
  Frank Wennmohs         : Technical directorship and infrastructure     
  Hang Xu                : AUTO-CI-Response properties                   
                                                                         
[FACCTs GmbH]                                                            
  Markus Bursch, Nicolas Foglia, Miquel Garcia-Rates, Ingolf Harden, Hagen Neugebauer, Anastasios Papadopoulos, 
  Christoph Riplinger, Bernardo de Souza, Georgi L. Stoychev                                                    
                                                                 
  APM, various basis sets, CI-OPT, improved COSX, DLPNO-Multilevel,           
  DOCKER, DRACO, updates on ESD, Fragmentator, GOAT, IRC, LR-CPCM, L-BFGS, MBIS, meta-GGA TD-DFT gradient, ML-optimized integration grids, 
  MM, NACMEs, nearIR, NEB, NEB-TS, NL-DFT gradient (VV10), 2- and 3-layer-ONIOM, interface openCOSMO-RS, QMMM,   
  Crystal-QMMM, RESP, rigid body optimization, SF, symmetry and pop. for TD-DFT, various functionals, SOLVATOR                                   
                                                                         
[Other institutions]                                                     
  V. Asgeirsson          : NEB                                           
  Christoph Bannwarth    : sTDA-DFT, sTD-DFT, PBEh-3c, B97-3c, D3        
  Giovanni Bistoni       : ETS/NOCV, ADLD/ADEX, COVALED                  
  Martin Brehm           : Molecular dynamics                            
  Ronald Cardenas        : ETS/NOCV                                      
  Martina Colucci        : COVALED                                       
  Sebastian Ehlert       : rSCAN, r2SCAN, r2SCAN-3c, D4, dhf basis sets  
  Marvin Friede          : D4 for Fr, Ra, Ac-Lr                          
  Lars Goerigk           : TD-DFT with DH, B97 family of functionals     
  Stefan Grimme          : VdW corrections, initial TS optimization, DFT functionals, gCP, sTDA/sTD-DF 
  Waldemar Hujo          : DFT-NL                                        
  H. Jonsson             : NEB                                           
  Holger Kruse           : gCP                                           
  Marcel Mueller         : wB97X-3c, vDZP basis set                      
  Hagen Neugebauer       : wr2SCAN, Native XTB                           
  Gianluca Regni         : ADLD/ADEX                                     
  Tobias Risthaus        : pre 6.0 range-separated hybrid DFT and stability analysis
  Lukas Wittmann         : regularized MP2, r2SCAN double-hybrids, wr2SCAN        
                                                                         
We gratefully acknowledge several colleagues who have allowed us to      
interface, adapt or use parts of their codes:                            
  Ed Valeev, F. Pavosevic, A. Kumar             : LibInt (2-el integral package), F12 methods 
  Garnet Chan, S. Sharma, J. Yang, R. Olivares  : DMRG                   
  Ulf Ekstrom                                   : XCFun DFT Library      
  Mihaly Kallay                                 : mrcc  (arbitrary order and MRCC methods)
  Frank Weinhold                                : gennbo (NPA and NBO analysis)           
  Simon Mueller                                 : openCOSMO-RS                            
  Christopher J. Cramer and Donald G. Truhlar   : smd solvation model                     
  S Lehtola, MJT Oliveira, MAL Marques          : LibXC Library                           
  Liviu Ungur et al                             : ANISO software                          


 Your calculation uses the libint2 library for the computation of 2-el integrals
 For citations please refer to: http://libint.valeyev.net

 Your ORCA version has been built with support for libXC version: 7.0.0
 For citations please refer to: https://libxc.gitlab.io

 This ORCA versions uses:
   CBLAS   interface :  Fast vector & matrix operations
   LAPACKE interface :  Fast linear algebra routines
   SCALAPACK package :  Parallel linear algebra routines
   Shared memory     :  Shared parallel matrices
   BLAS/LAPACK       :  OpenBLAS 0.3.29  USE64BITINT DYNAMIC_ARCH NO_AFFINITY SkylakeX SINGLE_THREADED
        Core in use  :  SkylakeX
   Copyright (c) 2011-2014, The OpenBLAS Project


  ***********************************
  * Starting time: Wed Aug 20 08:54:37 2025
  * Host name:     csed-0009
  * Process ID:    1563651
  * Working dir.:  /gpfs/fs1/home/copan/proj/cyclopentene-oh-addition-project/calc/C3e1/run-revdsd
  ***********************************

NOTE: MaxCore=10000 MB was set to SCF,MP2,MDCI,CIPSI,MRCI,RASCI and CIS
      => If you want to overwrite this, your respective input block should be placed after the MaxCore statement


***************************************
The coordinates will be read from file: guess.xyz
***************************************


Your calculation utilizes the atom-pairwise dispersion correction
based on EEQ partial charges (D4)


Warning: RI is on but no J-basis has been assigned. Assigning Def2/J (nothing to worry about!)
================================================================================

----- Orbital basis set information -----
Your calculation utilizes the basis: def2-TZVPP
   F. Weigend and R. Ahlrichs, Phys. Chem. Chem. Phys. 7, 3297 (2005).

----- AuxJ basis set information -----
Your calculation utilizes the auxiliary basis: def2/J
   H-Rn: F. Weigend, Phys. Chem. Chem. Phys. 8, 1057 (2006).
   Fr-Lr: K. Eichkorn, F. Weigend, O. Treutler, R. Ahlrichs; Theor. Chem. Acc. 97, 119 (1997).

----- AuxC basis set information -----
Your calculation utilizes the auxiliary basis: def2-TZVPP/C
  H-La, Hf-Rn : A. Hellweg, C. Hattig, S. Hofener and W. Klopper, Theor. Chem. Acc. 117, 587 (2007).
        Ce-Lu : J. Chmela and M. E. Harding, Mol. Phys. (2018).

================================================================================
                                        WARNINGS
                       Please study these warnings very carefully!
================================================================================


WARNING: The frozen-core approximation for MP2-gradient calculations is turned on by default.

WARNING: Geometry Optimization
  ===> : Switching off AutoStart
         For restart on a previous wavefunction, please use MOREAD

WARNING: The frozen-core approximation is turned on by default for 
         the MP2 part of double-hybrid DFT.

================================================================================
                                       INPUT FILE
================================================================================
NAME = opt.inp
|  1> % MaxCore 10000
|  2> ! PAL8
|  3> ! REVDSD-PBEP86-D4/2021 def2-TZVPP def2-TZVPP/c
|  4> ! OPT
|  5> * xyzfile 0 1 guess.xyz
|  6> 
|  7>                          ****END OF INPUT****
================================================================================

                       *****************************
                       * Geometry Optimization Run *
                       *****************************

Geometry optimization settings:
Update method            Update   .... BFGS
Choice of coordinates    CoordSys .... (2022) Redundant Internals
Initial Hessian          InHess   .... Almloef's Model
Max. no of cycles        MaxIter  .... 50

Convergence Tolerances:
Energy Change            TolE     ....  5.0000e-06 Eh
Max. Gradient            TolMAXG  ....  3.0000e-04 Eh/bohr
RMS Gradient             TolRMSG  ....  1.0000e-04 Eh/bohr
Max. Displacement        TolMAXD  ....  4.0000e-03 bohr
RMS Displacement         TolRMSD  ....  2.0000e-03 bohr
Strict Convergence                .... False

------------------------------------------------------------------------------
                        ORCA OPTIMIZATION COORDINATE SETUP
------------------------------------------------------------------------------

The optimization will be done in redundant internal coordinates (2022)
Making redundant internal coordinates   ...  (2022 redundants) done
Evaluating the initial hessian          ...  (Almloef) done
Evaluating the coordinates              ...  done
Calculating the B-matrix                .... done
Calculating the G-matrix                .... done
The number of degrees of freedom        ....   29

    -----------------------------------------------------------------
                    Redundant Internal Coordinates


    -----------------------------------------------------------------
         Definition                    Initial Value    Approx d2E/dq
    -----------------------------------------------------------------
      1. B(C   1,C   0)                  1.3380         0.756185   
      2. B(H   2,C   0)                  1.0827         0.369843   
      3. B(H   3,C   0)                  1.0847         0.367121   
      4. B(H   4,C   1)                  1.0867         0.364514   
      5. B(C   5,C   1)                  1.5020         0.414064   
      6. B(H   6,C   5)                  1.0933         0.355698   
      7. B(H   7,C   5)                  1.0914         0.358198   
      8. B(H   8,C   5)                  1.0934         0.355641   
      9. A(C   1,C   0,H   2)          121.4650         0.366713   
     10. A(C   1,C   0,H   3)          121.1559         0.366249   
     11. A(H   2,C   0,H   3)          117.3791         0.292952   
     12. A(H   4,C   1,C   5)          116.6539         0.330529   
     13. A(C   0,C   1,C   5)          124.4670         0.418411   
     14. A(C   0,C   1,H   4)          118.8791         0.365803   
     15. A(C   1,C   5,H   6)          110.9742         0.329194   
     16. A(H   7,C   5,H   8)          108.3655         0.290030   
     17. A(H   6,C   5,H   8)          107.0519         0.289711   
     18. A(C   1,C   5,H   8)          110.9742         0.329186   
     19. A(H   6,C   5,H   7)          108.3674         0.290037   
     20. A(C   1,C   5,H   7)          110.9677         0.329575   
     21. D(C   5,C   1,C   0,H   3)     -0.0571         0.040845   
     22. D(C   5,C   1,C   0,H   2)    179.8549         0.040845   
     23. D(H   4,C   1,C   0,H   2)     -0.1264         0.040845   
     24. D(H   4,C   1,C   0,H   3)    179.9616         0.040845   
     25. D(H   6,C   5,C   1,H   4)    -59.2816         0.012689   
     26. D(H   7,C   5,C   1,C   0)      0.1856         0.012689   
     27. D(H   6,C   5,C   1,C   0)    120.7367         0.012689   
     28. D(H   8,C   5,C   1,C   0)   -120.3630         0.012689   
     29. D(H   7,C   5,C   1,H   4)   -179.8327         0.012689   
    -----------------------------------------------------------------

Number of atoms                         .... 9
Number of degrees of freedom            .... 29


         *************************************************************
         *                GEOMETRY OPTIMIZATION CYCLE   1            *
         *************************************************************
---------------------------------
CARTESIAN COORDINATES (ANGSTROEM)
---------------------------------
  C      0.000000    0.000000    0.000000
  C      0.000000    0.000000    1.338046
  H      0.923527    0.000000   -0.565162
  H     -0.928282    0.001427   -0.561212
  H      0.951542   -0.002100    1.862874
  C     -1.238315    0.003137    2.188068
  H     -1.267906   -0.874284    2.839733
  H     -2.137098    0.002112    1.568848
  H     -1.266698    0.884124    2.835031

----------------------------
CARTESIAN COORDINATES (A.U.)
----------------------------
  NO LB      ZA    FRAG     MASS         X           Y           Z
   0 C     6.0000    0    12.011    0.000000    0.000000    0.000000
   1 C     6.0000    0    12.011    0.000000    0.000000    2.528540
   2 H     1.0000    0     1.008    1.745213    0.000000   -1.068001
   3 H     1.0000    0     1.008   -1.754199    0.002697   -1.060537
   4 H     1.0000    0     1.008    1.798154   -0.003968    3.520322
   5 C     6.0000    0    12.011   -2.340076    0.005928    4.134849
   6 H     1.0000    0     1.008   -2.395995   -1.652157    5.366318
   7 H     1.0000    0     1.008   -4.038530    0.003991    2.964693
   8 H     1.0000    0     1.008   -2.393712    1.670752    5.357432

--------------------------------
INTERNAL COORDINATES (ANGSTROEM)
--------------------------------
 C      0   0   0     0.000000000000     0.00000000     0.00000000
 C      1   0   0     1.338046000000     0.00000000     0.00000000
 H      1   2   0     1.082732749100   121.46498372     0.00000000
 H      1   2   3     1.084743479721   121.15589403   180.08807777
 H      2   1   3     1.086683494559   118.87910448   359.87355162
 C      2   1   3     1.501989107976   124.46695746   179.85485399
 H      6   2   1     1.093348302577   110.97418711   120.73673230
 H      6   2   1     1.091441862911   110.96773049     0.18562472
 H      6   2   1     1.093391426812   110.97419656   239.63696009

---------------------------
INTERNAL COORDINATES (A.U.)
---------------------------
 C      0   0   0     0.000000000000     0.00000000     0.00000000
 C      1   0   0     2.528540494589     0.00000000     0.00000000
 H      1   2   0     2.046068372026   121.46498372     0.00000000
 H      1   2   3     2.049868102229   121.15589403   180.08807777
 H      2   1   3     2.053534198970   118.87910448   359.87355162
 C      2   1   3     2.838348070207   124.46695746   179.85485399
 H      6   2   1     2.066128860857   110.97418711   120.73673230
 H      6   2   1     2.062526211998   110.96773049     0.18562472
 H      6   2   1     2.066210353853   110.97419656   239.63696009

---------------------
BASIS SET INFORMATION
---------------------
There are 2 groups of distinct atoms

 Group   1 Type C   : 11s6p2d1f contracted to 5s3p2d1f pattern {62111/411/11/1}
 Group   2 Type H   : 5s2p1d contracted to 3s2p1d pattern {311/11/1}

Atom   0C    basis set group =>   1
Atom   1C    basis set group =>   1
Atom   2H    basis set group =>   2
Atom   3H    basis set group =>   2
Atom   4H    basis set group =>   2
Atom   5C    basis set group =>   1
Atom   6H    basis set group =>   2
Atom   7H    basis set group =>   2
Atom   8H    basis set group =>   2
---------------------------------
AUXILIARY/J BASIS SET INFORMATION
---------------------------------
There are 2 groups of distinct atoms

 Group   1 Type C   : 12s5p4d2f1g contracted to 6s4p3d1f1g pattern {711111/2111/211/2/1}
 Group   2 Type H   : 5s2p1d contracted to 3s1p1d pattern {311/2/1}

Atom   0C    basis set group =>   1
Atom   1C    basis set group =>   1
Atom   2H    basis set group =>   2
Atom   3H    basis set group =>   2
Atom   4H    basis set group =>   2
Atom   5C    basis set group =>   1
Atom   6H    basis set group =>   2
Atom   7H    basis set group =>   2
Atom   8H    basis set group =>   2
---------------------------------
AUXILIARY/C BASIS SET INFORMATION
---------------------------------
There are 2 groups of distinct atoms

 Group   1 Type C   : 8s6p5d3f1g contracted to 8s6p4d3f1g pattern {11111111/111111/2111/111/1}
 Group   2 Type H   : 4s3p2d1f contracted to 4s3p2d1f pattern {1111/111/11/1}

Atom   0C    basis set group =>   1
Atom   1C    basis set group =>   1
Atom   2H    basis set group =>   2
Atom   3H    basis set group =>   2
Atom   4H    basis set group =>   2
Atom   5C    basis set group =>   1
Atom   6H    basis set group =>   2
Atom   7H    basis set group =>   2
Atom   8H    basis set group =>   2


           ************************************************************
           *        Program running with 8 parallel MPI-processes     *
           *              working on a common directory               *
           ************************************************************
------------------------------------------------------------------------------
                             ORCA STARTUP CALCULATIONS
                           -- RI-GTO INTEGRALS CHOSEN --
------------------------------------------------------------------------------
------------------------------------------------------------------------------
                   ___                                                        
                  /   \      - P O W E R E D   B Y -                         
                 /     \                                                     
                 |  |  |   _    _      __       _____    __    __             
                 |  |  |  | |  | |    /  \     |  _  \  |  |  /  |          
                  \  \/   | |  | |   /    \    | | | |  |  | /  /          
                 / \  \   | |__| |  /  /\  \   | |_| |  |  |/  /          
                |  |  |   |  __  | /  /__\  \  |    /   |      \           
                |  |  |   | |  | | |   __   |  |    \   |  |\   \          
                \     /   | |  | | |  |  |  |  | |\  \  |  | \   \       
                 \___/    |_|  |_| |__|  |__|  |_| \__\ |__|  \__/        
                                                                              
                      - O R C A' S   B I G   F R I E N D -                    
                                      &                                       
                       - I N T E G R A L  F E E D E R -                       
                                                                              
 v1 FN, 2020, v2 2021, v3 2022-2024                                           
------------------------------------------------------------------------------


----------------------
SHARK INTEGRAL PACKAGE
----------------------

Number of atoms                             ...      9
Number of basis functions                   ...    177
Number of shells                            ...     69
Maximum angular momentum                    ...      3
Integral batch strategy                     ... SHARK/LIBINT Hybrid
RI-J (if used) integral strategy            ... SPLIT-RIJ (Revised 2003 algorithm where possible)
Printlevel                                  ...      1
Contraction scheme used                     ... SEGMENTED contraction
Prescreening option                         ... SCHWARTZ
   Thresh                                   ... 2.500e-11
   Tcut                                     ... 2.500e-12
   Tpresel                                  ... 2.500e-12 
Coulomb Range Separation                    ... NOT USED
Exchange Range Separation                   ... NOT USED
Multipole approximations                    ... NOT USED
Finite Nucleus Model                        ... NOT USED
CABS basis                                  ... NOT available
Auxiliary Coulomb fitting basis             ... AVAILABLE
   # of basis functions in Aux-J            ...    213
   # of shells in Aux-J                     ...     75
   Maximum angular momentum in Aux-J        ...      4
Auxiliary J/K fitting basis                 ... NOT available
Auxiliary Correlation fitting basis         ... AVAILABLE
   # of basis functions in Aux-C            ...    408
   # of shells in Aux-C                     ...    126
   Maximum angular momentum in Aux-C        ...      4
Auxiliary 'external' fitting basis          ... NOT available

Checking pre-screening integrals            ... done (  0.0 sec) Dimension = 69
   => SHARK Basis and OBASIS are compatible. Storing Pre-screening
Shell pair information
Shell pair cut-off parameter TPreSel        ...   2.5e-12
Total number of shell pairs                 ...      2415
Shell pairs after pre-screening             ...      2367
Total number of primitive shell pairs       ...      5970
Primitive shell pairs kept                  ...      5095
          la=0 lb=0:    544 shell pairs
          la=1 lb=0:    679 shell pairs
          la=1 lb=1:    226 shell pairs
          la=2 lb=0:    388 shell pairs
          la=2 lb=1:    248 shell pairs
          la=2 lb=2:     78 shell pairs
          la=3 lb=0:     99 shell pairs
          la=3 lb=1:     63 shell pairs
          la=3 lb=2:     36 shell pairs
          la=3 lb=3:      6 shell pairs

Checking whether 4 symmetric matrices of dimension 177 fit in memory
:Max Core in MB      =  10000.00
 MB in use           =      6.24
 MB left             =   9993.76
 MB needed           =      0.48
 Data fit in memory  = YES
Calculating RI/J V-Matrix + Cholesky decomp.... done (  0.0 sec)
Calculating RI/C V-Matrix + Cholesky decomp.... done (  0.0 sec)
Calculating Nuclear repulsion               ... done (  0.0 sec) ENN=     70.667953160508 Eh

Diagonalization of the overlap matrix:
Smallest eigenvalue                        ... 1.429e-04
Time for diagonalization                   ...    0.003 sec
Threshold for overlap eigenvalues          ... 1.000e-07
Number of eigenvalues below threshold      ... 0
Time for construction of square roots      ...    0.002 sec
Total time needed                          ...    0.006 sec

-------------------
DFT GRID GENERATION
-------------------

General Integration Accuracy     IntAcc      ... 4.388
Radial Grid Type                 RadialGrid  ... OptM3 with GC (2021)
Angular Grid (max. ang.)         AngularGrid ... 4 (Lebedev-302)
Angular grid pruning method      GridPruning ... 4 (adaptive)
Weight generation scheme         WeightScheme... mBecke (2022)
Basis function cutoff            BFCut       ... 1.0000e-11
Integration weight cutoff        WCut        ... 1.0000e-14
Partially contracted basis set               ... off
Rotationally invariant grid construction     ... off
Angular grids for H and He will be reduced by one unit

Total number of grid points                  ...    37721
Total number of batches                      ...      594
Average number of points per batch           ...       63
Average number of grid points per atom       ...     4191

--------------------
COSX GRID GENERATION
--------------------

GRIDX 1
-------
General Integration Accuracy     IntAcc      ... 3.816
Radial Grid Type                 RadialGrid  ... OptM3 with GC (2021)
Angular Grid (max. ang.)         AngularGrid ... 1 (Lebedev-50)
Angular grid pruning method      GridPruning ... 4 (adaptive)
Weight generation scheme         WeightScheme... mBecke (2022)
Basis function cutoff            BFCut       ... 1.0000e-11
Integration weight cutoff        WCut        ... 1.0000e-14
Partially contracted basis set               ... on
Rotationally invariant grid construction     ... off
Angular grids for H and He will be reduced by one unit

Total number of grid points                  ...     4885
Total number of batches                      ...       43
Average number of points per batch           ...      113
Average number of grid points per atom       ...      543
UseSFitting                                  ... on

GRIDX 2
-------
General Integration Accuracy     IntAcc      ... 4.020
Radial Grid Type                 RadialGrid  ... OptM3 with GC (2021)
Angular Grid (max. ang.)         AngularGrid ... 2 (Lebedev-110)
Angular grid pruning method      GridPruning ... 4 (adaptive)
Weight generation scheme         WeightScheme... mBecke (2022)
Basis function cutoff            BFCut       ... 1.0000e-11
Integration weight cutoff        WCut        ... 1.0000e-14
Partially contracted basis set               ... on
Rotationally invariant grid construction     ... off
Angular grids for H and He will be reduced by one unit

Total number of grid points                  ...    10216
Total number of batches                      ...       84
Average number of points per batch           ...      121
Average number of grid points per atom       ...     1135
UseSFitting                                  ... on

GRIDX 3
-------
General Integration Accuracy     IntAcc      ... 4.338
Radial Grid Type                 RadialGrid  ... OptM3 with GC (2021)
Angular Grid (max. ang.)         AngularGrid ... 3 (Lebedev-194)
Angular grid pruning method      GridPruning ... 4 (adaptive)
Weight generation scheme         WeightScheme... mBecke (2022)
Basis function cutoff            BFCut       ... 1.0000e-11
Integration weight cutoff        WCut        ... 1.0000e-14
Partially contracted basis set               ... on
Rotationally invariant grid construction     ... off
Angular grids for H and He will be reduced by one unit

Total number of grid points                  ...    22463
Total number of batches                      ...      180
Average number of points per batch           ...      124
Average number of grid points per atom       ...     2496
UseSFitting                                  ... on
Grids setup in   0.3 sec
Initializing property integral containers    ... done (  0.0 sec)

SHARK setup successfully completed in   0.4 seconds

Maximum memory used throughout the entire STARTUP-calculation: 14.0 MB


           ************************************************************
           *        Program running with 8 parallel MPI-processes     *
           *              working on a common directory               *
           ************************************************************
-------------------------------------------------------------------------------
                                 ORCA GUESS
                   Start orbitals & Density for SCF / CASSCF
-------------------------------------------------------------------------------

------------
SCF SETTINGS
------------
Hamiltonian:
 Density Functional     Method          .... DFT(GTOs)
 Exchange Functional    Exchange        .... PBE
   PBE kappa parameter   XKappa         ....  0.804000
   PBE mue parameter    XMuePBE         ....  0.219520
 Correlation Functional Correlation     .... P86
 LDA part of GGA corr.  LDAOpt          .... VWN-5
 Gradients option       PostSCFGGA      .... off
 Hybrid DFT is turned on
   Fraction HF Exchange ScalHFX         ....  0.690000
   Scaling of DF-GGA-X  ScalDFX         ....  0.310000
   Scaling of DF-GGA-C  ScalDFC         ....  0.422400
   Scaling of DF-LDA-C  ScalLDAC        ....  0.422400
   Perturbative correction              ....  1.000000
 RI-approximation to the Coulomb term is turned on
   Number of AuxJ basis functions       .... 213
   RIJ-COSX (HFX calculated with COS-X)).... on


General Settings:
 Integral files         IntName         .... opt
 Hartree-Fock type      HFTyp           .... RHF
 Total Charge           Charge          ....    0
 Multiplicity           Mult            ....    1
 Number of Electrons    NEL             ....   24
 Basis Dimension        Dim             ....  177
 Nuclear Repulsion      ENuc            ....     70.6679531605 Eh

Convergence Acceleration:
 AO-DIIS                CNVDIIS         .... on
   Start iteration      DIISMaxIt       ....    12
   Startup error        DIISStart       ....  0.200000
   # of expansion vecs  DIISMaxEq       ....     5
   Bias factor          DIISBfac        ....   1.050
   Max. coefficient     DIISMaxC        ....  10.000
 MO-DIIS                CNVKDIIS        .... off
 Trust-Rad. Augm. Hess. CNVTRAH         .... auto
   Auto Start mean grad. ratio tolernc. ....  1.125000
   Auto Start start iteration           ....    50
   Auto Start num. interpolation iter.  ....    10
   Max. Number of Micro iterations      ....    24
   Max. Number of Macro iterations      .... Maxiter - #DIIS iter
   Number of Davidson start vectors     ....     2
   Converg. threshold    (grad. norm)   ....   1.000e-05
   Grad. Scal. Fac. for Micro threshold ....   0.100
   Minimum threshold for Micro iter.    ....   1.000e-02
   NR start threshold (gradient norm)   ....   1.000e-04
   Initial trust radius                 ....   0.400
   Minimum AH scaling param. (alpha)    ....   1.000
   Maximum AH scaling param. (alpha)    .... 1000.000
   Quad. conv. algorithm                .... NR
   White noise on init. David. guess    .... on
   Maximum white noise                  ....   0.010
   Pseudo random numbers                .... off
   Inactive MOs                         .... canonical
   Orbital update algorithm             .... Taylor
   Preconditioner                       .... Diag
   Full preconditioner red. dimension   ....   250
 SOSCF                 CNVSOSCF           .... on
   Start iteration     SOSCFMaxIt         ....   150
   Startup grad/error  SOSCFStart         ....  0.003300
   Hessian update      SOSCFHessUp        .... L-BFGS
   Autom. constraints  SOSCFAutoConstrain .... off
 Level Shifting         CNVShift        .... on
   Level shift para.    LevelShift      ....    0.2500
   Turn off err/grad.   ShiftErr        ....    0.0010
 Zerner damping         CNVZerner       .... off
 Static damping         CNVDamp         .... on
   Fraction old density DampFac         ....    0.7000
   Max. Damping (<1)    DampMax         ....    0.9800
   Min. Damping (>=0)   DampMin         ....    0.0000
   Turn off err/grad.   DampErr         ....    0.1000

SCF Procedure:
 Maximum # iterations   MaxIter         ....   125
 SCF integral mode      SCFMode         .... Direct
   Integral package                     .... SHARK and LIBINT hybrid scheme
 Reset frequency        DirectResetFreq ....    20
 Integral Threshold     Thresh          ....  2.500e-11 Eh
 Primitive CutOff       TCut            ....  2.500e-12 Eh

Convergence Tolerance:
 Convergence Check Mode ConvCheckMode   .... Total+1el-Energy
 Convergence forced     ConvForced      .... 0
 Energy Change          TolE            ....  1.000e-08 Eh
 1-El. energy change                    ....  1.000e-05 Eh
 Orbital Gradient       TolG            ....  1.000e-05
 Orbital Rotation angle TolX            ....  1.000e-05
 DIIS Error             TolErr          ....  5.000e-07

------------------------------
INITIAL GUESS: MODEL POTENTIAL
------------------------------
Loading Hartree-Fock densities                     ... done
Calculating cut-offs                               ... done
Initializing the effective Hamiltonian             ... done
Setting up the integral package (SHARK)            ... done
Starting the Coulomb interaction                   ... done (   0.0 sec)
Making the grid                                    ... done (   0.0 sec)
Mapping shells                                     ... done
Starting the XC term evaluation                    ... done (   0.0 sec)
  promolecular density results
     # of electrons  =     23.998475647
     EX              =    -17.064718842
     EC              =      0.016946117
     EX+EC           =    -17.047772725
Transforming the Hamiltonian                       ... done (   0.0 sec)
Diagonalizing the Hamiltonian                      ... done (   0.0 sec)
Back transforming the eigenvectors                 ... done (   0.0 sec)
Now organizing SCF variables                       ... done
                      ------------------
                      INITIAL GUESS DONE (   0.1 sec)
                      ------------------
             **** ENERGY FILE WAS UPDATED (opt.en.tmp) ****
Finished Guess after   0.6 sec
Maximum memory used throughout the entire GUESS-calculation: 10.5 MB


           ************************************************************
           *        Program running with 8 parallel MPI-processes     *
           *              working on a common directory               *
           ************************************************************

-------------------------------------------------------------------------------------------
                                      ORCA LEAN-SCF
                              memory conserving SCF solver
-------------------------------------------------------------------------------------------

----------------------------------------D-I-I-S--------------------------------------------
Iteration    Energy (Eh)           Delta-E    RMSDP     MaxDP     DIISErr   Damp  Time(sec)
-------------------------------------------------------------------------------------------
               ***  Starting incremental Fock matrix formation  ***
    1    -117.3079751917934175     0.00e+00  2.76e-03  3.13e-02  1.83e-01  0.700   0.4
    2    -117.3567865190357793    -4.88e-02  2.10e-03  2.07e-02  1.13e-01  0.700   0.3
                               ***Turning on AO-DIIS***
    3    -117.3836435844897892    -2.69e-02  1.08e-03  9.33e-03  6.11e-02  0.700   0.3
    4    -117.3997182392091361    -1.61e-02  2.36e-03  1.91e-02  3.93e-02  0.000   0.3
                              *** Initializing SOSCF ***
---------------------------------------S-O-S-C-F--------------------------------------
Iteration    Energy (Eh)           Delta-E    RMSDP     MaxDP     MaxGrad    Time(sec)
--------------------------------------------------------------------------------------
    5    -117.4337580760237643    -3.40e-02  2.86e-04  2.40e-03  2.81e-03     0.3
               *** Restarting incremental Fock matrix formation ***
    6    -117.4338054518195236    -4.74e-05  1.81e-04  1.43e-03  5.46e-04     0.4
    7    -117.4338122273715612    -6.78e-06  8.05e-05  5.75e-04  2.33e-04     0.3
    8    -117.4338130469309078    -8.20e-07  3.10e-05  2.40e-04  1.28e-04     0.3
    9    -117.4338132671183246    -2.20e-07  3.48e-06  2.56e-05  1.16e-05     0.3
   10    -117.4338132735367992    -6.42e-09  9.51e-07  9.06e-06  8.10e-06     0.3
                 **** Energy Check signals convergence ****

               *****************************************************
               *                     SUCCESS                       *
               *           SCF CONVERGED AFTER  10 CYCLES          *
               *****************************************************

Recomputing exchange energy using gridx3       ... done (    0.447 sec)
Old exchange energy                            :    -12.182979418 Eh
New exchange energy                            :    -12.182958428 Eh
Exchange energy change after final integration :      0.000020990 Eh
Total energy after final integration           :   -117.433792281 Eh
             **** ENERGY FILE WAS UPDATED (opt.en.tmp) ****

----------------
TOTAL SCF ENERGY
----------------

Total Energy       :       -117.43379228058333 Eh           -3195.53595 eV

Components:
Nuclear Repulsion  :         70.66795316050761 Eh            1922.97277 eV
Electronic Energy  :       -188.10176643148418 Eh           -5118.50928 eV
One Electron Energy:       -296.55632384770286 Eh           -8069.70783 eV
Two Electron Energy:        108.45455741621866 Eh            2951.19854 eV

Virial components:
Potential Energy   :       -234.46399498876076 Eh           -6380.08966 eV
Kinetic Energy     :        117.03020270817744 Eh            3184.55372 eV
Virial Ratio       :          2.00344859329529

DFT components:
N(Alpha)           :       12.000010036187 electrons
N(Beta)            :       12.000010036187 electrons
N(Total)           :       24.000020072375 electrons
E(X)               :       -5.439948789302 Eh       
E(C)               :       -0.350170055045 Eh       
E(XC)              :       -5.790118844347 Eh       

---------------
SCF CONVERGENCE
---------------

  Last Energy change         ...    6.4185e-09  Tolerance :   1.0000e-08
  Last MAX-Density change    ...    9.0629e-06  Tolerance :   1.0000e-07
  Last RMS-Density change    ...    9.5149e-07  Tolerance :   5.0000e-09
  Last DIIS Error            ...    2.8105e-03  Tolerance :   5.0000e-07
  Last Orbital Gradient      ...    8.0993e-06  Tolerance :   1.0000e-05
  Last Orbital Rotation      ...    8.3523e-06  Tolerance :   1.0000e-05


----------------
ORBITAL ENERGIES
----------------

  NO   OCC          E(Eh)            E(eV) 
   0   2.0000     -10.821462      -294.4669 
   1   2.0000     -10.808517      -294.1147 
   2   2.0000     -10.804637      -294.0091 
   3   2.0000      -0.959578       -26.1114 
   4   2.0000      -0.839812       -22.8524 
   5   2.0000      -0.682235       -18.5646 
   6   2.0000      -0.575243       -15.6532 
   7   2.0000      -0.522070       -14.2063 
   8   2.0000      -0.510635       -13.8951 
   9   2.0000      -0.466391       -12.6912 
  10   2.0000      -0.437710       -11.9107 
  11   2.0000      -0.323453        -8.8016 
  12   0.0000       0.095839         2.6079 
  13   0.0000       0.114280         3.1097 
  14   0.0000       0.146553         3.9879 
  15   0.0000       0.155799         4.2395 
  16   0.0000       0.183428         4.9913 
  17   0.0000       0.183645         4.9972 
  18   0.0000       0.204994         5.5782 
  19   0.0000       0.236512         6.4358 
  20   0.0000       0.274584         7.4718 
  21   0.0000       0.280987         7.6460 
  22   0.0000       0.281269         7.6537 
*Only the first 10 virtual orbitals were printed.

                    ********************************
                    * MULLIKEN POPULATION ANALYSIS *
                    ********************************

-----------------------
MULLIKEN ATOMIC CHARGES
-----------------------
   0 C :   -0.211981
   1 C :   -0.110796
   2 H :    0.092492
   3 H :    0.075179
   4 H :    0.091592
   5 C :   -0.177580
   6 H :    0.081882
   7 H :    0.077276
   8 H :    0.081935
Sum of atomic charges:   -0.0000000

--------------------------------
MULLIKEN REDUCED ORBITAL CHARGES
--------------------------------
  0 C s       :     3.154080  s :     3.154080
      pz      :     0.952438  p :     2.976297
      px      :     1.021126
      py      :     1.002733
      dz2     :     0.013826  d :     0.076361
      dxz     :     0.039267
      dyz     :     0.016583
      dx2y2   :     0.006722
      dxy     :    -0.000036
      f0      :     0.000828  f :     0.005243
      f+1     :     0.001445
      f-1     :     0.001765
      f+2     :     0.000653
      f-2     :     0.000009
      f+3     :     0.000507
      f-3     :     0.000037

  1 C s       :     3.169588  s :     3.169588
      pz      :     0.947474  p :     2.817398
      px      :     0.946865
      py      :     0.923059
      dz2     :     0.022735  d :     0.116399
      dxz     :     0.047594
      dyz     :     0.027317
      dx2y2   :     0.012598
      dxy     :     0.006155
      f0      :     0.001054  f :     0.007410
      f+1     :     0.002100
      f-1     :     0.001752
      f+2     :     0.000954
      f-2     :     0.000465
      f+3     :     0.000748
      f-3     :     0.000337

  2 H s       :     0.866415  s :     0.866415
      pz      :     0.011153  p :     0.039154
      px      :     0.016319
      py      :     0.011682
      dz2     :     0.000435  d :     0.001940
      dxz     :     0.000484
      dyz     :     0.000282
      dx2y2   :     0.000331
      dxy     :     0.000408

  3 H s       :     0.881609  s :     0.881609
      pz      :     0.012908  p :     0.041189
      px      :     0.017035
      py      :     0.011246
      dz2     :     0.000454  d :     0.002023
      dxz     :     0.000544
      dyz     :     0.000268
      dx2y2   :     0.000345
      dxy     :     0.000411

  4 H s       :     0.867741  s :     0.867741
      pz      :     0.009574  p :     0.038600
      px      :     0.018665
      py      :     0.010360
      dz2     :     0.000489  d :     0.002068
      dxz     :     0.000533
      dyz     :     0.000230
      dx2y2   :     0.000413
      dxy     :     0.000403

  5 C s       :     3.128069  s :     3.128069
      pz      :     1.005272  p :     2.966094
      px      :     0.924041
      py      :     1.036781
      dz2     :     0.005766  d :     0.079742
      dxz     :     0.017466
      dyz     :     0.027822
      dx2y2   :     0.021264
      dxy     :     0.007425
      f0      :     0.000379  f :     0.003675
      f+1     :     0.000653
      f-1     :     0.000143
      f+2     :     0.001417
      f-2     :     0.000434
      f+3     :     0.000334
      f-3     :     0.000316

  6 H s       :     0.878956  s :     0.878956
      pz      :     0.012552  p :     0.037237
      px      :     0.008533
      py      :     0.016152
      dz2     :     0.000424  d :     0.001925
      dxz     :     0.000312
      dyz     :     0.000437
      dx2y2   :     0.000363
      dxy     :     0.000389

  7 H s       :     0.885372  s :     0.885372
      pz      :     0.012159  p :     0.035406
      px      :     0.014306
      py      :     0.008940
      dz2     :     0.000446  d :     0.001946
      dxz     :     0.000477
      dyz     :     0.000244
      dx2y2   :     0.000375
      dxy     :     0.000404

  8 H s       :     0.878902  s :     0.878902
      pz      :     0.012496  p :     0.037237
      px      :     0.008529
      py      :     0.016212
      dz2     :     0.000421  d :     0.001926
      dxz     :     0.000308
      dyz     :     0.000440
      dx2y2   :     0.000364
      dxy     :     0.000393



                     *******************************
                     * LOEWDIN POPULATION ANALYSIS *
                     *******************************

----------------------
LOEWDIN ATOMIC CHARGES
----------------------
   0 C :   -0.002313
   1 C :   -0.039578
   2 H :   -0.003964
   3 H :   -0.004248
   4 H :    0.008156
   5 C :    0.001253
   6 H :    0.012959
   7 H :    0.014713
   8 H :    0.013023

-------------------------------
LOEWDIN REDUCED ORBITAL CHARGES
-------------------------------
  0 C s       :     2.762899  s :     2.762899
      pz      :     1.046823  p :     2.940182
      px      :     1.002826
      py      :     0.890532
      dz2     :     0.062944  d :     0.271837
      dxz     :     0.147205
      dyz     :     0.039733
      dx2y2   :     0.021919
      dxy     :     0.000035
      f0      :     0.007642  f :     0.027395
      f+1     :     0.009571
      f-1     :     0.005165
      f+2     :     0.002888
      f-2     :     0.000009
      f+3     :     0.001698
      f-3     :     0.000421

  1 C s       :     2.748598  s :     2.748598
      pz      :     1.054900  p :     2.850947
      px      :     0.973325
      py      :     0.822722
      dz2     :     0.094363  d :     0.400777
      dxz     :     0.162772
      dyz     :     0.075933
      dx2y2   :     0.042458
      dxy     :     0.025251
      f0      :     0.007662  f :     0.039257
      f+1     :     0.014516
      f-1     :     0.005315
      f+2     :     0.003591
      f-2     :     0.003133
      f+3     :     0.002810
      f-3     :     0.002231

  2 H s       :     0.824879  s :     0.824879
      pz      :     0.042647  p :     0.151533
      px      :     0.065117
      py      :     0.043770
      dz2     :     0.005525  d :     0.027552
      dxz     :     0.007922
      dyz     :     0.002702
      dx2y2   :     0.005822
      dxy     :     0.005580

  3 H s       :     0.826269  s :     0.826269
      pz      :     0.041777  p :     0.150346
      px      :     0.065762
      py      :     0.042807
      dz2     :     0.005501  d :     0.027633
      dxz     :     0.008042
      dyz     :     0.002619
      dx2y2   :     0.005830
      dxy     :     0.005641

  4 H s       :     0.815644  s :     0.815644
      pz      :     0.042313  p :     0.148532
      px      :     0.067574
      py      :     0.038644
      dz2     :     0.005367  d :     0.027668
      dxz     :     0.008230
      dyz     :     0.002265
      dx2y2   :     0.006335
      dxy     :     0.005471

  5 C s       :     2.701575  s :     2.701575
      pz      :     0.986548  p :     2.968032
      px      :     0.972850
      py      :     1.008634
      dz2     :     0.024125  d :     0.299485
      dxz     :     0.080824
      dyz     :     0.089248
      dx2y2   :     0.082436
      dxy     :     0.022852
      f0      :     0.005414  f :     0.029654
      f+1     :     0.005469
      f-1     :     0.002081
      f+2     :     0.006268
      f-2     :     0.002538
      f+3     :     0.003911
      f-3     :     0.003975

  6 H s       :     0.811454  s :     0.811454
      pz      :     0.050061  p :     0.147154
      px      :     0.038123
      py      :     0.058969
      dz2     :     0.006064  d :     0.028433
      dxz     :     0.003911
      dyz     :     0.007483
      dx2y2   :     0.005533
      dxy     :     0.005443

  7 H s       :     0.812903  s :     0.812903
      pz      :     0.046760  p :     0.143660
      px      :     0.058113
      py      :     0.038786
      dz2     :     0.005761  d :     0.028725
      dxz     :     0.007471
      dyz     :     0.003778
      dx2y2   :     0.005813
      dxy     :     0.005902

  8 H s       :     0.811404  s :     0.811404
      pz      :     0.049906  p :     0.147143
      px      :     0.038120
      py      :     0.059117
      dz2     :     0.006011  d :     0.028429
      dxz     :     0.003860
      dyz     :     0.007506
      dx2y2   :     0.005561
      dxy     :     0.005491



                      *****************************
                      * MAYER POPULATION ANALYSIS *
                      *****************************

  NA   - Mulliken gross atomic population
  ZA   - Total nuclear charge
  QA   - Mulliken gross atomic charge
  VA   - Mayer's total valence
  BVA  - Mayer's bonded valence
  FA   - Mayer's free valence

  ATOM       NA         ZA         QA         VA         BVA        FA
  0 C      6.2120     6.0000    -0.2120     3.9635     3.9635    -0.0000
  1 C      6.1108     6.0000    -0.1108     3.8504     3.8504    -0.0000
  2 H      0.9075     1.0000     0.0925     1.0078     1.0078    -0.0000
  3 H      0.9248     1.0000     0.0752     1.0127     1.0127     0.0000
  4 H      0.9084     1.0000     0.0916     1.0050     1.0050    -0.0000
  5 C      6.1776     6.0000    -0.1776     3.9286     3.9286     0.0000
  6 H      0.9181     1.0000     0.0819     0.9981     0.9981    -0.0000
  7 H      0.9227     1.0000     0.0773     1.0069     1.0069    -0.0000
  8 H      0.9181     1.0000     0.0819     0.9981     0.9981     0.0000

  Mayer bond orders larger than 0.100000
B(  0-C ,  1-C ) :   1.9236 B(  0-C ,  2-H ) :   0.9981 B(  0-C ,  3-H ) :   1.0053 
B(  1-C ,  4-H ) :   0.9906 B(  1-C ,  5-C ) :   0.9539 B(  5-C ,  6-H ) :   0.9888 
B(  5-C ,  7-H ) :   0.9968 B(  5-C ,  8-H ) :   0.9887 

-------
TIMINGS
-------

Total SCF time: 0 days 0 hours 0 min 4 sec 

Total time                  ....       4.365 sec
Sum of individual times     ....       4.071 sec  ( 93.3%)

SCF preparation             ....       0.532 sec  ( 12.2%)
Fock matrix formation       ....       3.282 sec  ( 75.2%)
  Startup                   ....       0.008 sec  (  0.3% of F)
  Split-RI-J                ....       0.206 sec  (  6.3% of F)
  Chain of spheres X        ....       2.498 sec  ( 76.1% of F)
  XC integration            ....       0.722 sec  ( 22.0% of F)
    XC Preparation          ....       0.000 sec  (  0.0% of XC)
    Basis function eval.    ....       0.211 sec  ( 29.2% of XC)
    Density eval.           ....       0.113 sec  ( 15.7% of XC)
    XC-Functional eval.     ....       0.041 sec  (  5.7% of XC)
    XC-Potential eval.      ....       0.184 sec  ( 25.6% of XC)
Diagonalization             ....       0.000 sec  (  0.0%)
Density matrix formation    ....       0.034 sec  (  0.8%)
Total Energy calculation    ....       0.019 sec  (  0.4%)
Population analysis         ....       0.014 sec  (  0.3%)
Orbital Transformation      ....       0.030 sec  (  0.7%)
Orbital Orthonormalization  ....       0.000 sec  (  0.0%)
DIIS solution               ....       0.096 sec  (  2.2%)
SOSCF solution              ....       0.063 sec  (  1.4%)
Finished LeanSCF after   4.4 sec

Maximum memory used throughout the entire LEANSCF-calculation: 12.7 MB


           ************************************************************
           *        Program running with 8 parallel MPI-processes     *
           *              working on a common directory               *
           ************************************************************

------------------------------------------------------------------------------
                                ORCA  MP2 
------------------------------------------------------------------------------

Freezing NCore=6 chemical core electrons

----------------------
RI-MP2 ENERGY+GRADIENT
----------------------
Dimension of the orbital basis            ...  177
Dimension of the AuxC basis               ...  408
Memory devoted to MP2                     ... 10000 MB   
Data format for matrix containers         ... DOUBLE
Compression type for matrix containers    ... UNCOMPRESSED
Scaling for aa/bb pairs                   ...   5.660e-02
Scaling for ab pairs                      ...   5.935e-01
Overall scaling of the MP2 energy         ...   1.000e+00

-----------------------
SHARK RI TRANSFORMATION
-----------------------

Number of basis functions                ...    177
Number of aux functions                  ...    408
Number of operators                      ...      1
Generation of IJK                        ... YES
Generation of IAK                        ... YES
Generation of ABK                        ... NO
Orbital Range Operator  0:    0-  11 to   12- 176

Aux basis identifier                     ...   AUXC
Contraction scheme used                  ... SEGMENTED
Do orthogonalization                     ... YES
All operator combinations                ... NO
Transpose (ia|K)                         ... NO
Integral generator used                  ... LIBINT
Starting integral generation + trafo... 
Half trafo (segmented) done. Total time =  0.0 sec. integrals=  0.0 sec trafo=  0.0 sec
Integral generation and half transformation done (  0.0 sec)

Reading or making V^(-1/2)          ... done (  0.0 sec)
Sorting IJK integrals               ... done (  0.0 sec)
Sorting IAK integrals               ... done (  0.0 sec)

SHARK RI integral transformation done. Total time =  0.1 sec.

Opening buffers                              ... done
Frozen core precalculation                   ... done

Starting loop over batches of integrals:

Operator 0  - window                       ... (  3- 11)x( 12-176)
Operator 0  - Memory available             ... 10000 MB
Operator 0  - Memory needed per MO         ...   0.5 MB
Operator 0  - Number of orbitals per batch ... 2
Operator 0  - Number of batches            ... 1

OPERATOR  0   PASS   0:  MOs     3 ...    4 +    5 ...    6 +    7 ...    8 +    9 ...   10
                            +   11 ...   11
  Reading integrals       ... ok
Closing buffer GIPV ( 0.00 GB; CompressionRatio= 1.00)
Time spent in pair loops =     0.064 sec
Deleting buffers (Ka|jb) ...done

-----------------------------------------------
 RI-MP2 CORRELATION ENERGY:     -0.273017838 Eh
-----------------------------------------------


---------------------
MP2 DENSITY FORMATION
---------------------

Completing the external part of the density      ... done
Storing the unrelaxed density                    ... done

Re-sorting 3-index density container for op 0    ... done
Computing external part of the Lagrangian        ... done
Calculating the xc-kernel                        ... done
Calculating G(D)                                 ... done
Completing the Lagrangian                        ... done
Solving the Z-vector equations                   ... Using XC Grid                  ... (opt.grid_cpscf.tmp) 
Recalculating density on grid  ... (opt.grho_cpscf0.tmp) done
Calculating the xc-kernel      ... (opt.fxc_cpscf0.tmp) done

-------------------
SHARK CP-SCF DRIVER
-------------------

Dimension of the orbital basis          ...    177
Dimension of the CPSCF-problem          ...   1980
Number of operators                     ...      1
Max. number of iterations               ...    128
Convergence Tolerance                   ... 1.0e-04
Number of perturbations                 ...      1
Perturbation type                       ... REAL

----------------------------
POPLE LINEAR EQUATION SOLVER
----------------------------

  ITERATION   0:   ||err||_max =   3.8503e-02 (   0.2 sec)
  ITERATION   1:   ||err||_max =   8.4367e-03 (   0.2 sec)
  ITERATION   2:   ||err||_max =   2.9796e-03 (   0.2 sec)
  ITERATION   3:   ||err||_max =   7.9553e-04 (   0.2 sec)
  ITERATION   4:   ||err||_max =   1.9750e-04 (   0.2 sec)
  ITERATION   5:   ||err||_max =   5.5970e-05 (   0.2 sec)
done
Finalizing the relaxed density                   ... done
Transforming P to the AO basis                   ... done
Storing the relaxed density                      ... done

------------------------------------
ENERGY WEIGHTED DENSITY FINALIZATION
------------------------------------

Gathering the parts of the W-matrix              ... done
Forming the Z-density                            ... done
Transforming Z to the AO basis                   ... done
Calculating G(Z)                                 ... done
Finalizing the W-matrix                          ... done
Transforming W to the AO basis and storing       ... done

----------------------------------
MP2 DERIVATIVE INTEGRAL GENERATION
----------------------------------

Input SCF Electron Density              ... opt.scfp
Input Correlated Electron Density       ... opt.pmp2re
Input Energy Weighted Density           ... opt.wmp2.tmp

Nuclear repulsion gradient              ... done (  0.0 sec)
HCore & Overlap gradient  (SHARK)       ... done (  0.0 sec)
Two-electron RIJ gradient terms         ... done (  0.2 sec)

-----------------------------------------------------------
MP2 COSX Grid Generation
-----------------------------------------------------------

General Integration Accuracy     IntAcc      ... 4.871
Radial Grid Type                 RadialGrid  ... OptM3 with GC (2021)
Angular Grid (max. ang.)         AngularGrid ... 4 (Lebedev-302)
Angular grid pruning method      GridPruning ... 4 (adaptive)
Weight generation scheme         WeightScheme... mBecke (2022)
Basis function cutoff            BFCut       ... 1.0000e-11
Integration weight cutoff        WCut        ... 1.0000e-14
Partially contracted basis set               ... on
Rotationally invariant grid construction     ... off
Angular grids for H and He will be reduced by one unit

Total number of grid points                  ...    45089
Total number of batches                      ...      356
Average number of points per batch           ...      126
Average number of grid points per atom       ...     5010
UseSFitting                                  ... on
Two-electron COSX gradient terms        ... 
Integration Timings:
Total Time                  =     1.2 sec
Basis fcn evaluation        =     0.0 sec
Density evaluation          =     0.0 sec
A evaluation                =     1.0 sec
A derivative evaluation     =     0.0 sec
S-fit derivative evaluation =     0.0 sec
anal. over. der. evaluation =     0.0 sec
num. over. der. evaluation  =     0.0 sec
K(P) evaluation             =     0.0 sec
finalize                    =     0.0 sec

done (  1.4 sec)
DFT XC gradient                         ... done (  0.2 sec)
Empirical dispersion gradient           ... done (  0.0 sec)

                *********************************************
                * UNRELAXED MP2 DENSITY POPULATION ANALYSIS *
                *********************************************

------------------------------------------------------------------------------
                           ORCA POPULATION ANALYSIS
------------------------------------------------------------------------------
Input electron density              ... opt.pmp2ur
BaseName (.gbw .S,...)              ... opt

                    ********************************
                    * MULLIKEN POPULATION ANALYSIS *
                    ********************************

-----------------------
MULLIKEN ATOMIC CHARGES
-----------------------
   0 C :   -0.212809
   1 C :   -0.112283
   2 H :    0.093189
   3 H :    0.076057
   4 H :    0.092666
   5 C :   -0.179401
   6 H :    0.082383
   7 H :    0.077760
   8 H :    0.082437
Sum of atomic charges:   -0.0000000

--------------------------------
MULLIKEN REDUCED ORBITAL CHARGES
--------------------------------
  0 C s       :     3.152816  s :     3.152816
      pz      :     0.948751  p :     2.964924
      px      :     1.017724
      py      :     0.998449
      dz2     :     0.015424  d :     0.087973
      dxz     :     0.041494
      dyz     :     0.018761
      dx2y2   :     0.009501
      dxy     :     0.002794
      f0      :     0.001083  f :     0.007095
      f+1     :     0.001875
      f-1     :     0.002002
      f+2     :     0.000872
      f-2     :     0.000312
      f+3     :     0.000697
      f-3     :     0.000254
  1 C s       :     3.168328  s :     3.168328
      pz      :     0.943263  p :     2.807914
      px      :     0.943402
      py      :     0.921248
      dz2     :     0.024278  d :     0.126651
      dxz     :     0.049365
      dyz     :     0.029158
      dx2y2   :     0.015023
      dxy     :     0.008827
      f0      :     0.001331  f :     0.009390
      f+1     :     0.002556
      f-1     :     0.002003
      f+2     :     0.001198
      f-2     :     0.000783
      f+3     :     0.000948
      f-3     :     0.000571
  2 H s       :     0.862895  s :     0.862895
      pz      :     0.012007  p :     0.041581
      px      :     0.016937
      py      :     0.012638
      dz2     :     0.000509  d :     0.002334
      dxz     :     0.000562
      dyz     :     0.000345
      dx2y2   :     0.000405
      dxy     :     0.000512
  3 H s       :     0.877843  s :     0.877843
      pz      :     0.013798  p :     0.043686
      px      :     0.017676
      py      :     0.012211
      dz2     :     0.000528  d :     0.002414
      dxz     :     0.000622
      dyz     :     0.000331
      dx2y2   :     0.000419
      dxy     :     0.000514
  4 H s       :     0.863602  s :     0.863602
      pz      :     0.010490  p :     0.041258
      px      :     0.019398
      py      :     0.011370
      dz2     :     0.000566  d :     0.002474
      dxz     :     0.000613
      dyz     :     0.000292
      dx2y2   :     0.000491
      dxy     :     0.000513
  5 C s       :     3.126859  s :     3.126859
      pz      :     1.001541  p :     2.955852
      px      :     0.921224
      py      :     1.033087
      dz2     :     0.008615  d :     0.091092
      dxz     :     0.019044
      dyz     :     0.029958
      dx2y2   :     0.023206
      dxy     :     0.010270
      f0      :     0.000635  f :     0.005598
      f+1     :     0.000959
      f-1     :     0.000426
      f+2     :     0.001598
      f-2     :     0.000762
      f+3     :     0.000605
      f-3     :     0.000613
  6 H s       :     0.875823  s :     0.875823
      pz      :     0.013288  p :     0.039509
      px      :     0.009524
      py      :     0.016697
      dz2     :     0.000506  d :     0.002285
      dxz     :     0.000369
      dyz     :     0.000511
      dx2y2   :     0.000428
      dxy     :     0.000471
  7 H s       :     0.882156  s :     0.882156
      pz      :     0.012930  p :     0.037777
      px      :     0.014939
      py      :     0.009908
      dz2     :     0.000525  d :     0.002307
      dxz     :     0.000551
      dyz     :     0.000303
      dx2y2   :     0.000440
      dxy     :     0.000487
  8 H s       :     0.875769  s :     0.875769
      pz      :     0.013235  p :     0.039508
      px      :     0.009520
      py      :     0.016753
      dz2     :     0.000503  d :     0.002285
      dxz     :     0.000365
      dyz     :     0.000513
      dx2y2   :     0.000429
      dxy     :     0.000475


                     *******************************
                     * LOEWDIN POPULATION ANALYSIS *
                     *******************************

----------------------
LOEWDIN ATOMIC CHARGES
----------------------
   0 C :   -0.000416
   1 C :   -0.038778
   2 H :   -0.004701
   3 H :   -0.005035
   4 H :    0.007168
   5 C :    0.003383
   6 H :    0.012225
   7 H :    0.013864
   8 H :    0.012290

-------------------------------
LOEWDIN REDUCED ORBITAL CHARGES
-------------------------------
  0 C s       :     2.760569  s :     2.760569
      pz      :     1.040806  p :     2.924063
      px      :     0.997716
      py      :     0.885541
      dz2     :     0.066057  d :     0.285077
      dxz     :     0.148804
      dyz     :     0.042576
      dx2y2   :     0.025036
      dxy     :     0.002604
      f0      :     0.008434  f :     0.030707
      f+1     :     0.010055
      f-1     :     0.005814
      f+2     :     0.003369
      f-2     :     0.000357
      f+3     :     0.002004
      f-3     :     0.000673
  1 C s       :     2.746540  s :     2.746540
      pz      :     1.048841  p :     2.837181
      px      :     0.968263
      py      :     0.820077
      dz2     :     0.097173  d :     0.412223
      dxz     :     0.164286
      dyz     :     0.077754
      dx2y2   :     0.045392
      dxy     :     0.027618
      f0      :     0.008505  f :     0.042833
      f+1     :     0.015032
      f-1     :     0.005976
      f+2     :     0.004153
      f-2     :     0.003507
      f+3     :     0.003145
      f-3     :     0.002516
  2 H s       :     0.820368  s :     0.820368
      pz      :     0.044043  p :     0.155723
      px      :     0.067012
      py      :     0.044668
      dz2     :     0.005649  d :     0.028611
      dxz     :     0.008277
      dyz     :     0.002805
      dx2y2   :     0.006079
      dxy     :     0.005801
  3 H s       :     0.821730  s :     0.821730
      pz      :     0.043179  p :     0.154621
      px      :     0.067707
      py      :     0.043736
      dz2     :     0.005624  d :     0.028683
      dxz     :     0.008392
      dyz     :     0.002722
      dx2y2   :     0.006088
      dxy     :     0.005858
  4 H s       :     0.811098  s :     0.811098
      pz      :     0.043645  p :     0.152991
      px      :     0.069638
      py      :     0.039707
      dz2     :     0.005495  d :     0.028743
      dxz     :     0.008557
      dyz     :     0.002365
      dx2y2   :     0.006617
      dxy     :     0.005709
  5 C s       :     2.699826  s :     2.699826
      pz      :     0.981382  p :     2.952459
      px      :     0.967750
      py      :     1.003327
      dz2     :     0.026400  d :     0.311709
      dxz     :     0.083400
      dyz     :     0.091760
      dx2y2   :     0.084891
      dxy     :     0.025257
      f0      :     0.005763  f :     0.032624
      f+1     :     0.005851
      f-1     :     0.002430
      f+2     :     0.007003
      f-2     :     0.002934
      f+3     :     0.004266
      f-3     :     0.004377
  6 H s       :     0.807078  s :     0.807078
      pz      :     0.051528  p :     0.151360
      px      :     0.039090
      py      :     0.060742
      dz2     :     0.006184  d :     0.029336
      dxz     :     0.003998
      dyz     :     0.007849
      dx2y2   :     0.005737
      dxy     :     0.005569
  7 H s       :     0.808498  s :     0.808498
      pz      :     0.048173  p :     0.148002
      px      :     0.060123
      py      :     0.039707
      dz2     :     0.005885  d :     0.029635
      dxz     :     0.007821
      dyz     :     0.003857
      dx2y2   :     0.006048
      dxy     :     0.006024
  8 H s       :     0.807029  s :     0.807029
      pz      :     0.051364  p :     0.151349
      px      :     0.039086
      py      :     0.060898
      dz2     :     0.006131  d :     0.029332
      dxz     :     0.003947
      dyz     :     0.007871
      dx2y2   :     0.005768
      dxy     :     0.005616


                      *****************************
                      * MAYER POPULATION ANALYSIS *
                      *****************************

  NA   - Mulliken gross atomic population
  ZA   - Total nuclear charge
  QA   - Mulliken gross atomic charge
  VA   - Mayer's total valence
  BVA  - Mayer's bonded valence
  FA   - Mayer's free valence

  ATOM       NA         ZA         QA         VA         BVA        FA
  0 C      6.2128     6.0000    -0.2128     4.0262     3.8084     0.2178
  1 C      6.1123     6.0000    -0.1123     3.9062     3.6882     0.2180
  2 H      0.9068     1.0000     0.0932     1.0149     0.9804     0.0345
  3 H      0.9239     1.0000     0.0761     1.0202     0.9854     0.0348
  4 H      0.9073     1.0000     0.0927     1.0124     0.9781     0.0343
  5 C      6.1794     6.0000    -0.1794     3.9839     3.8120     0.1719
  6 H      0.9176     1.0000     0.0824     1.0053     0.9697     0.0356
  7 H      0.9222     1.0000     0.0778     1.0142     0.9789     0.0354
  8 H      0.9176     1.0000     0.0824     1.0052     0.9697     0.0356

  Mayer bond orders larger than 0.100000
B(  0-C ,  1-C ) :   1.8243 B(  0-C ,  2-H ) :   0.9727 B(  0-C ,  3-H ) :   0.9798 
B(  1-C ,  4-H ) :   0.9657 B(  1-C ,  5-C ) :   0.9196 B(  5-C ,  6-H ) :   0.9623 
B(  5-C ,  7-H ) :   0.9700 B(  5-C ,  8-H ) :   0.9622 


                *******************************************
                * RELAXED MP2 DENSITY POPULATION ANALYSIS *
                *******************************************

------------------------------------------------------------------------------
                           ORCA POPULATION ANALYSIS
------------------------------------------------------------------------------
Input electron density              ... opt.pmp2re
BaseName (.gbw .S,...)              ... opt

                    ********************************
                    * MULLIKEN POPULATION ANALYSIS *
                    ********************************

-----------------------
MULLIKEN ATOMIC CHARGES
-----------------------
   0 C :   -0.205385
   1 C :   -0.106308
   2 H :    0.092920
   3 H :    0.075940
   4 H :    0.090954
   5 C :   -0.212740
   6 H :    0.090872
   7 H :    0.082817
   8 H :    0.090930
Sum of atomic charges:   -0.0000000

--------------------------------
MULLIKEN REDUCED ORBITAL CHARGES
--------------------------------
  0 C s       :     3.163587  s :     3.163587
      pz      :     0.946110  p :     2.952638
      px      :     1.011208
      py      :     0.995320
      dz2     :     0.013863  d :     0.082305
      dxz     :     0.040712
      dyz     :     0.015911
      dx2y2   :     0.009015
      dxy     :     0.002805
      f0      :     0.001021  f :     0.006855
      f+1     :     0.001861
      f-1     :     0.001888
      f+2     :     0.000841
      f-2     :     0.000312
      f+3     :     0.000683
      f-3     :     0.000248
  1 C s       :     3.170592  s :     3.170592
      pz      :     0.936209  p :     2.808060
      px      :     0.939667
      py      :     0.932184
      dz2     :     0.022631  d :     0.118627
      dxz     :     0.047668
      dyz     :     0.025350
      dx2y2   :     0.014172
      dxy     :     0.008805
      f0      :     0.001227  f :     0.009029
      f+1     :     0.002536
      f-1     :     0.001890
      f+2     :     0.001116
      f-2     :     0.000774
      f+3     :     0.000921
      f-3     :     0.000565
  2 H s       :     0.865401  s :     0.865401
      pz      :     0.011477  p :     0.039423
      px      :     0.015489
      py      :     0.012457
      dz2     :     0.000504  d :     0.002255
      dxz     :     0.000524
      dyz     :     0.000336
      dx2y2   :     0.000380
      dxy     :     0.000511
  3 H s       :     0.880190  s :     0.880190
      pz      :     0.013203  p :     0.041535
      px      :     0.016232
      py      :     0.012100
      dz2     :     0.000523  d :     0.002336
      dxz     :     0.000579
      dyz     :     0.000324
      dx2y2   :     0.000394
      dxy     :     0.000514
  4 H s       :     0.867285  s :     0.867285
      pz      :     0.010259  p :     0.039367
      px      :     0.017669
      py      :     0.011439
      dz2     :     0.000553  d :     0.002394
      dxz     :     0.000577
      dyz     :     0.000289
      dx2y2   :     0.000456
      dxy     :     0.000520
  5 C s       :     3.146241  s :     3.146241
      pz      :     1.006481  p :     2.974786
      px      :     0.930451
      py      :     1.037854
      dz2     :     0.008559  d :     0.086194
      dxz     :     0.017342
      dyz     :     0.028564
      dx2y2   :     0.021727
      dxy     :     0.010002
      f0      :     0.000624  f :     0.005519
      f+1     :     0.000950
      f-1     :     0.000428
      f+2     :     0.001526
      f-2     :     0.000770
      f+3     :     0.000592
      f-3     :     0.000628
  6 H s       :     0.868854  s :     0.868854
      pz      :     0.012821  p :     0.038063
      px      :     0.009691
      py      :     0.015551
      dz2     :     0.000507  d :     0.002211
      dxz     :     0.000361
      dyz     :     0.000468
      dx2y2   :     0.000404
      dxy     :     0.000469
  7 H s       :     0.878166  s :     0.878166
      pz      :     0.012533  p :     0.036779
      px      :     0.014159
      py      :     0.010087
      dz2     :     0.000521  d :     0.002238
      dxz     :     0.000509
      dyz     :     0.000301
      dx2y2   :     0.000419
      dxy     :     0.000488
  8 H s       :     0.868799  s :     0.868799
      pz      :     0.012778  p :     0.038061
      px      :     0.009688
      py      :     0.015595
      dz2     :     0.000503  d :     0.002211
      dxz     :     0.000358
      dyz     :     0.000471
      dx2y2   :     0.000406
      dxy     :     0.000473


                     *******************************
                     * LOEWDIN POPULATION ANALYSIS *
                     *******************************

----------------------
LOEWDIN ATOMIC CHARGES
----------------------
   0 C :    0.003541
   1 C :   -0.041040
   2 H :   -0.004490
   3 H :   -0.004889
   4 H :    0.006636
   5 C :   -0.002334
   6 H :    0.013874
   7 H :    0.014763
   8 H :    0.013939

-------------------------------
LOEWDIN REDUCED ORBITAL CHARGES
-------------------------------
  0 C s       :     2.762190  s :     2.762190
      pz      :     1.040728  p :     2.922306
      px      :     0.999137
      py      :     0.882440
      dz2     :     0.065248  d :     0.281134
      dxz     :     0.148041
      dyz     :     0.040568
      dx2y2   :     0.024670
      dxy     :     0.002607
      f0      :     0.008422  f :     0.030828
      f+1     :     0.010038
      f-1     :     0.005938
      f+2     :     0.003347
      f-2     :     0.000358
      f+3     :     0.002030
      f-3     :     0.000696
  1 C s       :     2.747624  s :     2.747624
      pz      :     1.046723  p :     2.843582
      px      :     0.968023
      py      :     0.828836
      dz2     :     0.096939  d :     0.407005
      dxz     :     0.163319
      dyz     :     0.074299
      dx2y2   :     0.044773
      dxy     :     0.027676
      f0      :     0.008500  f :     0.042829
      f+1     :     0.015058
      f-1     :     0.005950
      f+2     :     0.004118
      f-2     :     0.003491
      f+3     :     0.003158
      f-3     :     0.002554
  2 H s       :     0.820167  s :     0.820167
      pz      :     0.044594  p :     0.155283
      px      :     0.066285
      py      :     0.044404
      dz2     :     0.005675  d :     0.029040
      dxz     :     0.008401
      dyz     :     0.002818
      dx2y2   :     0.006132
      dxy     :     0.006014
  3 H s       :     0.821582  s :     0.821582
      pz      :     0.043646  p :     0.154203
      px      :     0.067047
      py      :     0.043510
      dz2     :     0.005643  d :     0.029104
      dxz     :     0.008514
      dyz     :     0.002735
      dx2y2   :     0.006144
      dxy     :     0.006068
  4 H s       :     0.811000  s :     0.811000
      pz      :     0.044159  p :     0.153157
      px      :     0.068942
      py      :     0.040056
      dz2     :     0.005495  d :     0.029206
      dxz     :     0.008649
      dyz     :     0.002391
[...]
      f-1     :     0.006046
      f+2     :     0.003358
      f-2     :     0.000360
      f+3     :     0.002028
      f-3     :     0.000694
  1 C s       :     2.745518  s :     2.745518
      pz      :     1.048300  p :     2.843739
      px      :     0.967197
      py      :     0.828241
      dz2     :     0.097450  d :     0.410567
      dxz     :     0.165018
      dyz     :     0.075225
      dx2y2   :     0.044951
      dxy     :     0.027923
      f0      :     0.008646  f :     0.043473
      f+1     :     0.015334
      f-1     :     0.006056
      f+2     :     0.004149
      f-2     :     0.003546
      f+3     :     0.003168
      f-3     :     0.002574
  2 H s       :     0.819810  s :     0.819810
      pz      :     0.044465  p :     0.155099
      px      :     0.066261
      py      :     0.044373
      dz2     :     0.005674  d :     0.029046
      dxz     :     0.008397
      dyz     :     0.002808
      dx2y2   :     0.006140
      dxy     :     0.006027
  3 H s       :     0.821318  s :     0.821318
      pz      :     0.043722  p :     0.154075
      px      :     0.066881
      py      :     0.043472
      dz2     :     0.005685  d :     0.029115
      dxz     :     0.008500
      dyz     :     0.002766
      dx2y2   :     0.006121
      dxy     :     0.006042
  4 H s       :     0.810402  s :     0.810402
      pz      :     0.044120  p :     0.152823
      px      :     0.068746
      py      :     0.039956
      dz2     :     0.005515  d :     0.029190
      dxz     :     0.008640
      dyz     :     0.002399
      dx2y2   :     0.006647
      dxy     :     0.005990
  5 C s       :     2.700689  s :     2.700689
      pz      :     0.983891  p :     2.960723
      px      :     0.971331
      py      :     1.005501
      dz2     :     0.026933  d :     0.307755
      dxz     :     0.081355
      dyz     :     0.090261
      dx2y2   :     0.083400
      dxy     :     0.025805
      f0      :     0.005807  f :     0.032973
      f+1     :     0.005919
      f-1     :     0.002470
      f+2     :     0.006913
      f-2     :     0.003048
      f+3     :     0.004287
      f-3     :     0.004529
  6 H s       :     0.804539  s :     0.804539
      pz      :     0.051641  p :     0.151642
      px      :     0.039547
      py      :     0.060454
      dz2     :     0.006240  d :     0.029601
      dxz     :     0.003972
      dyz     :     0.007974
      dx2y2   :     0.005775
      dxy     :     0.005640
  7 H s       :     0.806859  s :     0.806859
      pz      :     0.048163  p :     0.148451
      px      :     0.060279
      py      :     0.040009
      dz2     :     0.005924  d :     0.029913
      dxz     :     0.007945
      dyz     :     0.003789
      dx2y2   :     0.006129
      dxy     :     0.006126
  8 H s       :     0.804523  s :     0.804523
      pz      :     0.051556  p :     0.151644
      px      :     0.039547
      py      :     0.060542
      dz2     :     0.006210  d :     0.029600
      dxz     :     0.003944
      dyz     :     0.007986
      dx2y2   :     0.005794
      dxy     :     0.005666


                      *****************************
                      * MAYER POPULATION ANALYSIS *
                      *****************************

  NA   - Mulliken gross atomic population
  ZA   - Total nuclear charge
  QA   - Mulliken gross atomic charge
  VA   - Mayer's total valence
  BVA  - Mayer's bonded valence
  FA   - Mayer's free valence

  ATOM       NA         ZA         QA         VA         BVA        FA
  0 C      6.2048     6.0000    -0.2048     4.0198     3.8046     0.2152
  1 C      6.1062     6.0000    -0.1062     3.9240     3.7091     0.2149
  2 H      0.9074     1.0000     0.0926     1.0128     0.9784     0.0345
  3 H      0.9245     1.0000     0.0755     1.0187     0.9840     0.0347
  4 H      0.9095     1.0000     0.0905     1.0098     0.9755     0.0343
  5 C      6.2116     6.0000    -0.2116     3.9827     3.8110     0.1717
  6 H      0.9093     1.0000     0.0907     1.0030     0.9676     0.0354
  7 H      0.9174     1.0000     0.0826     1.0131     0.9779     0.0353
  8 H      0.9093     1.0000     0.0907     1.0030     0.9676     0.0354

  Mayer bond orders larger than 0.100000
B(  0-C ,  1-C ) :   1.8281 B(  0-C ,  2-H ) :   0.9667 B(  0-C ,  3-H ) :   0.9734 
B(  1-C ,  4-H ) :   0.9612 B(  1-C ,  5-C ) :   0.9294 B(  5-C ,  6-H ) :   0.9576 
B(  5-C ,  7-H ) :   0.9654 B(  5-C ,  8-H ) :   0.9576 


-------
TIMINGS
-------

Total time                :    4.497 sec
Integral trafo            :    0.154 sec (  3.4%)
FC preparation            :    0.013 sec (  0.3%)
I/O of integrals          :    0.032 sec (  0.7%)
K(i,j) operators          :    0.009 sec (  0.2%)
T(i,j) pair energies      :    0.002 sec (  0.0%)
V**(-1/2)                 :    0.030 sec (  0.7%)
Gamma(ia|P)               :    0.008 sec (  0.2%)
Gamma-Trafo               :    0.007 sec (  0.2%)
D(virtual)                :    0.001 sec (  0.0%)
D(internal)               :    0.005 sec (  0.1%)
W(virtual)                :    0.002 sec (  0.0%)
W(internal)               :    0.005 sec (  0.1%)
L(virtual)                :    0.034 sec (  0.7%)
XC kernel                 :    0.014 sec (  0.3%)
G(D)                      :    0.359 sec (  8.0%)
G(Z)                      :    0.360 sec (  8.0%)
Z-vector solution         :    1.112 sec ( 24.7%)
3-index derivative        :    0.103 sec (  2.3%)
2-index derivative        :    0.038 sec (  0.8%)
Fock matrix gradient      :    1.979 sec ( 44.0%)


---------------------------------------
MP2 TOTAL ENERGY:     -117.706841389 Eh
---------------------------------------

The final MP2 gradient
  0:  -0.00002518   0.00000964   0.00010738
  1:   0.00000862  -0.00000652  -0.00012254
  2:   0.00002406  -0.00000212   0.00003505
  3:  -0.00003469   0.00000066   0.00006216
  4:   0.00001522   0.00000036  -0.00003000
  5:  -0.00002350  -0.00000304  -0.00000151
  6:   0.00000072  -0.00000009  -0.00000880
  7:   0.00002993  -0.00000197  -0.00003721
  8:   0.00000196   0.00000612  -0.00001357

-----------------------------------
NORM OF THE MP2 GRADIENT:  0.000196
-----------------------------------

Maximum memory used throughout the entire MP2-calculation: 30.6 MB


-------------------------------------------------------------------------------
                          DFT DISPERSION CORRECTION                            
                                                                               
                                DFTD4 V3.4.0                                   
-------------------------------------------------------------------------------
The REV-DSD-PBEP86-2021 functional is recognized
A user input s6-coefficient scaling factor has been recognized
A user input a1-coefficient scaling factor has been recognized
A user input s8-coefficient scaling factor has been recognized
A user input a2-coefficient scaling factor has been recognized
A user input s9-coefficient scaling factor has been recognized
Active option DFTDOPT                   ...         5   

-------------------------   ----------------
Dispersion correction           -0.003005964
-------------------------   ----------------


-------------------------   --------------------
FINAL SINGLE POINT ENERGY      -117.709847352548
-------------------------   --------------------

                                *** OPTIMIZATION RUN DONE ***



           ************************************************************
           *        Program running with 8 parallel MPI-processes     *
           *              working on a common directory               *
           ************************************************************

------------------------------------------------------------------------------
                              ORCA PROPERTY CALCULATIONS
------------------------------------------------------------------------------

GBWName                                 ... opt.gbw
Number of atoms                         ...      9
Number of basis functions               ...    177
Max core memory                         ...  10000 MB

Electric properties:
Dipole moment                           ... YES
Quadrupole moment                       ...  NO
Static polarizability (Dipole/Dipole)   ...  NO
Static polarizability (Dipole/Quad.)    ...  NO
Static polarizability (Quad./Quad.)     ...  NO
Static polarizability (Velocity)        ...  NO
Static hyperpolarizability              ...  NO

Atomic electric properties:
Dipole moment                           ...  NO
Quadrupole moment                       ...  NO
Static polarizability                   ...  NO

Choice of electric origin               ... Center of mass
Position of electric origin             ...    -0.838152     0.002586     2.262288

General magnetic properties:
Magnetizability                         ...  NO

EPR properties:
g-Tensor (aka g-matrix)                 ...  NO
Zero-Field splitting spin-orbit         ...  NO
Zero-field splitting spin-spin          ...  NO
Hyperfine couplings                     ...  NO (   0 nuclei)
Quadrupole couplings                    ...  NO (   0 nuclei)
Contact density                         ...  NO (   0 nuclei)

NMR properties:
Chemical shifts                         ...  NO (   0 nuclei)
Spin-rotation constants                 ...  NO (   0 nuclei)
Spin-spin couplings                     ...  NO (   0 nuclei,    0 pairs)

Choice of magnetic origin               ... GIAO
Position of magnetic origin             ...     0.000000     0.000000     0.000000

Properties with geometric perturbations:
SCF Hessian                             ...  NO
IR spectrum                             ...  NO
VCD spectrum                            ...  NO
X-ray spectroscopy properties:
SCF XES/XAS/RIXS spectra                ...  NO

SCF SOC stabilization energy            ...  NO
Diagonal Born-Oppenheimer correction    ...  NO

-------------
DIPOLE MOMENT
-------------

Method             : SCF
Type of density    : Electron Density
Multiplicity       :   1
Irrep              :   0
Energy             :  -117.4340346514930076 Eh
Basis              : AO
                                X                 Y                 Z
Electronic contribution:      0.940265006      -0.001916300      -0.599295903
Nuclear contribution   :     -0.994885137       0.002151742       0.749520746
                        -----------------------------------------
Total Dipole Moment    :     -0.054620131       0.000235443       0.150224843
                        -----------------------------------------
Magnitude (a.u.)       :      0.159846544
Magnitude (Debye)      :      0.406297626



--------------------
Rotational spectrum 
--------------------
 
Rotational constants in cm-1:             1.555527             0.311215             0.272369 
Rotational constants in MHz :         46633.524447          9329.976030          8165.431377 

Dipole components along the rotational axes: 
x,y,z [a.u.] :     0.157055    -0.029744    -0.000078 
x,y,z [Debye]:     0.399201    -0.075604    -0.000198 

 

-------------
DIPOLE MOMENT
-------------

Method             : MP2
Type of density    : Electron Density
Multiplicity       :   1
Level              : Unrelaxed density
Irrep              :   0
Energy             :     0.0000000000000000 Eh
Basis              : AO
                                X                 Y                 Z
Electronic contribution:      0.940437409      -0.001917543      -0.601224487
Nuclear contribution   :     -0.994885137       0.002151742       0.749520746
                        -----------------------------------------
Total Dipole Moment    :     -0.054447728       0.000234199       0.148296259
                        -----------------------------------------
Magnitude (a.u.)       :      0.157975917
Magnitude (Debye)      :      0.401542870



--------------------
Rotational spectrum 
--------------------
 
Rotational constants in cm-1:             1.555527             0.311215             0.272369 
Rotational constants in MHz :         46633.524447          9329.976030          8165.431377 

Dipole components along the rotational axes: 
x,y,z [a.u.] :     0.155308    -0.028908    -0.000078 
x,y,z [Debye]:     0.394763    -0.073478    -0.000198 

 

-------------
DIPOLE MOMENT
-------------

Method             : MP2
Type of density    : Electron Density
Multiplicity       :   1
Level              : Relaxed density
Irrep              :   0
Energy             :     0.0000000000000000 Eh
Basis              : AO
                                X                 Y                 Z
Electronic contribution:      0.944545351      -0.001931977      -0.614823106
Nuclear contribution   :     -0.994885137       0.002151742       0.749520746
                        -----------------------------------------
Total Dipole Moment    :     -0.050339786       0.000219766       0.134697640
                        -----------------------------------------
Magnitude (a.u.)       :      0.143797068
Magnitude (Debye)      :      0.365503099



--------------------
Rotational spectrum 
--------------------
 
Rotational constants in cm-1:             1.555527             0.311215             0.272369 
Rotational constants in MHz :         46633.524447          9329.976030          8165.431377 

Dipole components along the rotational axes: 
x,y,z [a.u.] :     0.141519    -0.025496    -0.000076 
x,y,z [Debye]:     0.359712    -0.064806    -0.000194 

 

Dipole moment calculation done in   0.0 sec 

Maximum memory used throughout the entire PROP-calculation: 7.6 MB

--------------------------------
SUGGESTED CITATIONS FOR THIS RUN
--------------------------------

Below you find a list of papers that are relevant to this ORCA run
We neither can nor want to force you to cite these papers, but we appreciate if you do
You receive ORCA, which is the product of decades of hard work by many enthusiastic individuals, for free
The only thing we kindly ask in return is that you cite our papers,
We deeply appreciate it, if you show your appreciation for ORCA by not just citing the generic ORCA reference.

Please note that relegating all ORCA citations to the supporting information does *not* help us.
SI sections are not indexed - citations you put there will not count into any citation statistics
But we need these citations in order to attract the funding resources that allow us to do what we are doing

Therefore, if you are a happy ORCA user, please consider citing a few of the papers listed below in the main body of your paper

In addition to the list printed below, the program has created the file opt.bibtex that contains the list in bibtex format
You can import this file easily into all common literature databanks and citation aid programs


List of essential papers. We consider these as the minimum necessary citations

  1. Neese, F.
     Software update: the ORCA program system, version 6.0
     WIRES Comput. Molec. Sci. 2025 15(1), e70019
     doi.org/10.1002/wcms.7019

List of papers to cite with high priority. The work reported in these papers was absolutely
necessary for this run to complete.
Our perspective: the developers of density functionals and basis sets usually get cited in chemistry papers
Good! But without the algorithms to do something with them, the functionals or basis sets would not do anything.
Hence, in our opinion, the algorithm design and method developments papers are equally worthy of getting cited

  1. Neese, F.
     An improvement of the resolution of the identity approximation for the formation of the Coulomb matrix
     J. Comp. Chem. 2003 24(14), 1740-1747
     doi.org/10.1002/jcc.10318
  2. Neese, F.; Schwabe, T.; Grimme, S.
     Analytic derivatives for perturbatively corrected 'double hybrid' density functionals: Theory, implementation, and applications
     J. Chem. Phys. 2007 126(12), Art. No. 124115
     doi.org/10.1063/1.2712433
  3. Neese, F.; Wennmohs, F.; Hansen, A.; Becker, U.
     Efficient, approximate and parallel Hartree-Fock and hybrid DFT calculations. A 'chain-of-spheres' algorithm for the Hartree-Fock exchange
     Chem. Phys. 2009 356(1-3), 98-109
     doi.org/10.1016/j.chemphys.2008.10.036
  4. Kossmann, S.; Neese, F.
     Efficient Structure Optimization with Second-Order Many-Body Perturbation Theory: The RIJCOSX-MP2 Method
     J. Theo. Comp. Chem. 2010 6 , 2325-2338
     doi.org/10.1021/ct100199k
  5. Caldeweyher, E.; Bannwarth, C.; Grimme, S.
     Extension of the D3 dispersion coefficient model
     J. Chem. Phys. 2017 147 , 034112
     doi.org/10.1063/1.4993215
  6. Caldeweyher, E.; Ehlert, S.; Hansen, A.; Neugebauer, H.; Spicher, S.; Bannwarth, C.; Grimme, S.
     A generally applicable atomic-charge dependent London dispersion correction
     J. Chem. Phys. 2019 150 , 154122
     doi.org/10.1063/1.5090222
  7. Caldeweyher, E.; Mewes, J.; Ehlert, S.; Grimme, S.
     Extension and evaluation of the D4 London-dispersion model for periodic systems
     Phys. Chem. Chem. Phys. 2020 22(16), 8499-8512
     doi.org/10.1039/D0CP00502A
  8. Helmich-Paris, B.; de Souza, B.; Neese, F.; Izsák, R.
     An improved chain of spheres for exchange algorithm
     J. Chem. Phys. 2021 155(10), 104109
     doi.org/10.1063/5.0058766
  9. Neese, F.
     The SHARK Integral Generation and Digestion System
     J. Comp. Chem. 2022 44(3), 381
     doi.org/10.1002/jcc.26942
 10. Wittmann, L.; Gordiy, I.; Friede, M.; Helmich-Paris, B.; Grimme, S.; Hansen, A.; Bursch, M.
     Extension of the D3 and D4 London Dispersion Corrections to the full Actinides Series
     Phys. Chem. Chem. Phys. 2024 26(32), 21379-21394
     doi.org/10.1039/D4CP01514B

List of suggested additional citations. These are papers that are important in the 'surrounding' of 
of this run, or papers that preceded the highly important papers. If you like your results we are grateful for a citation.

  1. Izsak, R.; Neese, F.
     An overlap fitted chain of spheres exchange method
     J. Chem. Phys. 2011 135 , 144105
     doi.org/10.1063/1.3646921
  2. Izsak, R.; Hansen, A.; Neese, F.
     The resolution of identity and chain of spheres approximations for the LPNO-CCSD singles Fock term
     Molec. Phys. 2012 110 , 2413-2417
     doi.org/10.1080/00268976.2012.687466
  3. Neese, F.
     The ORCA program system
     WIRES Comput. Molec. Sci. 2012 2(1), 73-78
     doi.org/10.1002/wcms.81
  4. Izsak, R.; Neese, F.; Klopper, W.
     Robust fitting techniques in the chain of spheres approximation to the Fock exchange: The role of the complementary space
     J. Chem. Phys. 2013 139 , 
     doi.org/10.1063/1.4819264
  5. Neese, F.
     Software update: the ORCA program system, version 4.0
     WIRES Comput. Molec. Sci. 2018 8(1), 1-6
     doi.org/10.1002/wcms.1327
  6. Neese, F.; Wennmohs, F.; Becker, U.; Riplinger, C.
     The ORCA quantum chemistry program package
     J. Chem. Phys. 2020 152(22), 224108
     doi.org/10.1063/5.0004608
  7. Neese, F.
     Software update: The ORCA program system—Version 5.0
     WIRES Comput. Molec. Sci. 2022 12(1), e1606
     doi.org/10.1002/wcms.1606

List of optional additional citations

  1. Neese, F.
     Approximate second-order SCF convergence for spin unrestricted wavefunctions
     Chem. Phys. Lett. 2000 325(1-3), 93-98
     doi.org/10.1016/s0009-2614(00)00662-x

Timings for individual modules:

Sum of individual times          ...       57.479 sec (=   0.958 min)
Startup calculation              ...        7.690 sec (=   0.128 min)  13.4 %
SCF iterations                   ...       24.183 sec (=   0.403 min)  42.1 %
Property calculations            ...        1.629 sec (=   0.027 min)   2.8 %
MP2 module                       ...       23.949 sec (=   0.399 min)  41.7 %
Geometry relaxation              ...        0.028 sec (=   0.000 min)   0.0 %
                             ****ORCA TERMINATED NORMALLY****
TOTAL RUN TIME: 0 days 0 hours 1 minutes 3 seconds 944 msec
