
                                 *****************
                                 * O   R   C   A *
                                 *****************

                                            #,                                       
                                            ###                                      
                                            ####                                     
                                            #####                                    
                                            ######                                   
                                           ########,                                 
                                     ,,################,,,,,                         
                               ,,#################################,,                 
                          ,,##########################################,,             
                       ,#########################################, ''#####,          
                    ,#############################################,,   '####,        
                  ,##################################################,,,,####,       
                ,###########''''           ''''###############################       
              ,#####''   ,,,,##########,,,,          '''####'''          '####       
            ,##' ,,,,###########################,,,                        '##       
           ' ,,###''''                  '''############,,,                           
         ,,##''                                '''############,,,,        ,,,,,,###''
      ,#''                                            '''#######################'''  
     '                                                          ''''####''''         
             ,#######,   #######,   ,#######,      ##                                
            ,#'     '#,  ##    ##  ,#'     '#,    #''#        ,####,    ,#,          
            ##       ##  ##   ,#'  ##            #'  '#       #'       ,# #          
            ##       ##  #######   ##           ,######,      #####,      #          
            '#,     ,#'  ##    ##  '#,     ,#' ,#      #,     #,   #      #          
             '#######'   ##     ##  '#######'  #'      '#     '####' #    #          



                #########################################################
                #                        -***-                          #
                #          Department of theory and spectroscopy        #
                #                                                       #
                #                      Frank Neese                      #
                #                                                       #
                #     Directorship, Architecture, Infrastructure        #
                #                    SHARK, DRIVERS                     #
                #        Core code/Algorithms in most modules           #
                #                                                       #
                #        Max Planck Institute fuer Kohlenforschung      #
                #                Kaiser Wilhelm Platz 1                 #
                #                 D-45470 Muelheim/Ruhr                 #
                #                      Germany                          #
                #                                                       #
                #                  All rights reserved                  #
                #                        -***-                          #
                #########################################################


                         Program Version 6.1.0  -  RELEASE   -
                                (GIT: $679e74b$)
                          ($2025-06-10 18:02:51 +0200$)


 With contributions from (in alphabetic order):
[Max-Planck-Institut fuer Kohlenforschung]                               
  Daniel Aravena         : Magnetic Suceptibility                        
  Michael Atanasov       : Ab Initio Ligand Field Theory (pilot matlab implementation)
  Alexander A. Auer      : GIAO ZORA, VPT2 properties, NMR spectrum      
  Ute Becker             : All parallelization in ORCA, NUMFREQ, NUMCALC 
  Giovanni Bistoni       : ED, misc. LED, open-shell LED, HFLD           
  Dmytro Bykov           : pre 5.0 version of the SCF Hessian            
  Marcos Casanova-Páez   : Triplet and SCS-CIS(D). UHF-(DLPNO)-IP/EA/STEOM-CCSD. UHF-CVS-IP/STEOM-CCSD   
  Vijay G. Chilkuri      : MRCI spin determinant printing, contributions to CSF-ICE 
  Pauline Colinet        : FMM embedding                                 
  Dipayan Datta          : RHF DLPNO-CCSD density                        
  Achintya Kumar Dutta   : EOM-CC, STEOM-CC                              
  Nicolas Foglia         : Exact transition moments, OPA infrastructure, MCD improvements    
  Dmitry Ganyushin       : Spin-Orbit,Spin-Spin,Magnetic field MRCI      
  Miquel Garcia-Rates    : C-PCM and meta-GGA Hessian, CCSD/C-PCM, Gaussian charge scheme 
  Tiago L. C. Gouveia    : GS-ROHF, GS-ROCIS                             
  Yang Guo               : DLPNO-NEVPT2, F12-NEVPT2, CIM, IAO-localization        
  Andreas Hansen         : Spin unrestricted coupled pair/coupled cluster methods 
  Ingolf Harden          : AUTO-CI MPn and infrastructure                
  Benjamin Helmich-Paris : MC-RPA, TRAH-(SCF,CASSCF), AVAS, COSX integrals, SCF dyn. polar., MC-PDFT, srDFT 
  Lee Huntington         : MR-EOM, pCC                                   
  Robert Izsak           : Overlap fitted RIJCOSX, COSX-SCS-MP3, EOM     
  Riya Kayal             : Wick's Theorem for AUTO-CI, AUTO-CI UHF-CCSDT 
  Emily Kempfer          : AUTO-CI RHF CISDT and CCSDT, approximate NEVPT4
  Christian Kollmar      : KDIIS, OOCD, Brueckner-CCSD(T), CCSD density, CASPT2, CASPT2-K, improved NEVPT2 
  Axel Koslowski         : Symmetry handling                             
  Simone Kossmann        : meta-GGA functionals, TD-DFT gradient, OOMP2, (MP2 Hessian; deprecated post 5.0) 
  Lucas Lang             : DCDCAS, Hyperfine gauge corrections, ICE-SOC+SSC
  Marvin Lechner         : AUTO-CI (C++ implementation), FIC-MRCC        
  Spencer Leger          : CASSCF response                               
  Dagmar Lenk            : GEPOL surface, SMD, ORCA-2-JSON               
  Dimitrios Liakos       : Extrapolation schemes; Compound Job, Property file
  Dimitrios Manganas     : Further ROCIS development; embedding schemes. LFT, Crystal Embedding 
  Dimitrios Pantazis     : SARC Basis sets                               
  Anastasios Papadopoulos: AUTO-CI, single reference methods and gradients 
  Taras Petrenko         : pre 6.0 DFT Hessian and TD-DFT gradient,  ECA, NRVS 
  Petra Pikulova         : Analytic Raman intensities                    
  Peter Pinski           : DLPNO-MP2, DLPNO-MP2 Gradient                 
  Shashank Vittal Rao    : ES-AILFT, MagRelax                            
  Christoph Reimann      : Effective Core Potentials                     
  Marius Retegan         : Local ZFS, SOC                                
  Christoph Riplinger    : Optimizer, TS searches, QM/MM, DLPNO-CCSD(T), (RO)-DLPNO pert. Triples 
  Michael Roemelt        : Original ROCIS implementation, recursive CI coupling coefficients
  Masaaki Saitow         : Open-shell DLPNO-CCSD energy and density      
  Barbara Sandhoefer     : DKH picture change effects                    
  Yorick L. A. Schmerwitz: GMF and freeze-and-release deltaSCF, NEB S-IDPP initial path                    
  Kantharuban Sivalingam : CASSCF convergence/infrastructure, NEVPT2, NEVPT3, NEVPT4(SD), FIC-MRCI and CEPA variants
  Bernardo de Souza      : ESD, SOC TD-DFT                               
  Georgi L. Stoychev     : AutoAux, RI-MP2 NMR, DLPNO-MP2 response, X2C  
  Van Anh Tran           : RI-MP2 g-tensors                              
  Willem Van den Heuvel  : Paramagnetic NMR                              
  Zikuan Wang            : NOTCH, Electric field optimization            
  Frank Wennmohs         : Technical directorship and infrastructure     
  Hang Xu                : AUTO-CI-Response properties                   
                                                                         
[FACCTs GmbH]                                                            
  Markus Bursch, Nicolas Foglia, Miquel Garcia-Rates, Ingolf Harden, Hagen Neugebauer, Anastasios Papadopoulos, 
  Christoph Riplinger, Bernardo de Souza, Georgi L. Stoychev                                                    
                                                                 
  APM, various basis sets, CI-OPT, improved COSX, DLPNO-Multilevel,           
  DOCKER, DRACO, updates on ESD, Fragmentator, GOAT, IRC, LR-CPCM, L-BFGS, MBIS, meta-GGA TD-DFT gradient, ML-optimized integration grids, 
  MM, NACMEs, nearIR, NEB, NEB-TS, NL-DFT gradient (VV10), 2- and 3-layer-ONIOM, interface openCOSMO-RS, QMMM,   
  Crystal-QMMM, RESP, rigid body optimization, SF, symmetry and pop. for TD-DFT, various functionals, SOLVATOR                                   
                                                                         
[Other institutions]                                                     
  V. Asgeirsson          : NEB                                           
  Christoph Bannwarth    : sTDA-DFT, sTD-DFT, PBEh-3c, B97-3c, D3        
  Giovanni Bistoni       : ETS/NOCV, ADLD/ADEX, COVALED                  
  Martin Brehm           : Molecular dynamics                            
  Ronald Cardenas        : ETS/NOCV                                      
  Martina Colucci        : COVALED                                       
  Sebastian Ehlert       : rSCAN, r2SCAN, r2SCAN-3c, D4, dhf basis sets  
  Marvin Friede          : D4 for Fr, Ra, Ac-Lr                          
  Lars Goerigk           : TD-DFT with DH, B97 family of functionals     
  Stefan Grimme          : VdW corrections, initial TS optimization, DFT functionals, gCP, sTDA/sTD-DF 
  Waldemar Hujo          : DFT-NL                                        
  H. Jonsson             : NEB                                           
  Holger Kruse           : gCP                                           
  Marcel Mueller         : wB97X-3c, vDZP basis set                      
  Hagen Neugebauer       : wr2SCAN, Native XTB                           
  Gianluca Regni         : ADLD/ADEX                                     
  Tobias Risthaus        : pre 6.0 range-separated hybrid DFT and stability analysis
  Lukas Wittmann         : regularized MP2, r2SCAN double-hybrids, wr2SCAN        
                                                                         
We gratefully acknowledge several colleagues who have allowed us to      
interface, adapt or use parts of their codes:                            
  Ed Valeev, F. Pavosevic, A. Kumar             : LibInt (2-el integral package), F12 methods 
  Garnet Chan, S. Sharma, J. Yang, R. Olivares  : DMRG                   
  Ulf Ekstrom                                   : XCFun DFT Library      
  Mihaly Kallay                                 : mrcc  (arbitrary order and MRCC methods)
  Frank Weinhold                                : gennbo (NPA and NBO analysis)           
  Simon Mueller                                 : openCOSMO-RS                            
  Christopher J. Cramer and Donald G. Truhlar   : smd solvation model                     
  S Lehtola, MJT Oliveira, MAL Marques          : LibXC Library                           
  Liviu Ungur et al                             : ANISO software                          


 Your calculation uses the libint2 library for the computation of 2-el integrals
 For citations please refer to: http://libint.valeyev.net

 Your ORCA version has been built with support for libXC version: 7.0.0
 For citations please refer to: https://libxc.gitlab.io

 This ORCA versions uses:
   CBLAS   interface :  Fast vector & matrix operations
   LAPACKE interface :  Fast linear algebra routines
   SCALAPACK package :  Parallel linear algebra routines
   Shared memory     :  Shared parallel matrices
   BLAS/LAPACK       :  OpenBLAS 0.3.29  USE64BITINT DYNAMIC_ARCH NO_AFFINITY SkylakeX SINGLE_THREADED
        Core in use  :  SkylakeX
   Copyright (c) 2011-2014, The OpenBLAS Project


  ***********************************
  * Starting time: Wed Aug 20 08:56:16 2025
  * Host name:     csed-0009
  * Process ID:    1564570
  * Working dir.:  /gpfs/fs1/home/copan/proj/cyclopentene-oh-addition-project/calc/OH/run-revdsd
  ***********************************

NOTE: MaxCore=10000 MB was set to SCF,MP2,MDCI,CIPSI,MRCI,RASCI and CIS
      => If you want to overwrite this, your respective input block should be placed after the MaxCore statement


***************************************
The coordinates will be read from file: guess.xyz
***************************************


Your calculation utilizes the atom-pairwise dispersion correction
based on EEQ partial charges (D4)


Warning: RI is on but no J-basis has been assigned. Assigning Def2/J (nothing to worry about!)
================================================================================

----- Orbital basis set information -----
Your calculation utilizes the basis: def2-TZVPP
   F. Weigend and R. Ahlrichs, Phys. Chem. Chem. Phys. 7, 3297 (2005).

----- AuxJ basis set information -----
Your calculation utilizes the auxiliary basis: def2/J
   H-Rn: F. Weigend, Phys. Chem. Chem. Phys. 8, 1057 (2006).
   Fr-Lr: K. Eichkorn, F. Weigend, O. Treutler, R. Ahlrichs; Theor. Chem. Acc. 97, 119 (1997).

----- AuxC basis set information -----
Your calculation utilizes the auxiliary basis: def2-TZVPP/C
  H-La, Hf-Rn : A. Hellweg, C. Hattig, S. Hofener and W. Klopper, Theor. Chem. Acc. 117, 587 (2007).
        Ce-Lu : J. Chmela and M. E. Harding, Mol. Phys. (2018).

================================================================================
                                        WARNINGS
                       Please study these warnings very carefully!
================================================================================


WARNING: your system is open-shell and RHF/RKS was chosen
  ===> : WILL SWITCH to UHF/UKS


WARNING: The frozen-core approximation for MP2-gradient calculations is turned on by default.

WARNING: Geometry Optimization
  ===> : Switching off AutoStart
         For restart on a previous wavefunction, please use MOREAD

WARNING: The frozen-core approximation is turned on by default for 
         the MP2 part of double-hybrid DFT.

================================================================================
                                       INPUT FILE
================================================================================
NAME = opt.inp
|  1> % MaxCore 10000
|  2> ! PAL8
|  3> ! REVDSD-PBEP86-D4/2021 def2-TZVPP def2-TZVPP/c
|  4> ! OPT
|  5> * xyzfile 0 2 guess.xyz
|  6> 
|  7>                          ****END OF INPUT****
================================================================================

                       *****************************
                       * Geometry Optimization Run *
                       *****************************

Geometry optimization settings:
Update method            Update   .... BFGS
Choice of coordinates    CoordSys .... (2022) Redundant Internals
Initial Hessian          InHess   .... Almloef's Model
Max. no of cycles        MaxIter  .... 50

Convergence Tolerances:
Energy Change            TolE     ....  5.0000e-06 Eh
Max. Gradient            TolMAXG  ....  3.0000e-04 Eh/bohr
RMS Gradient             TolRMSG  ....  1.0000e-04 Eh/bohr
Max. Displacement        TolMAXD  ....  4.0000e-03 bohr
RMS Displacement         TolRMSD  ....  2.0000e-03 bohr
Strict Convergence                .... False

------------------------------------------------------------------------------
                        ORCA OPTIMIZATION COORDINATE SETUP
------------------------------------------------------------------------------

The optimization will be done in redundant internal coordinates (2022)
Making redundant internal coordinates   ...  (2022 redundants) done
Evaluating the initial hessian          ...  (Almloef) done
Evaluating the coordinates              ...  done
Calculating the B-matrix                .... done
Calculating the G-matrix                .... done
The number of degrees of freedom        ....    1

    -----------------------------------------------------------------
                    Redundant Internal Coordinates


    -----------------------------------------------------------------
         Definition                    Initial Value    Approx d2E/dq
    -----------------------------------------------------------------
      1. B(H   1,O   0)                  0.9711         0.499151   
    -----------------------------------------------------------------

Number of atoms                         .... 2
Number of degrees of freedom            .... 1


         *************************************************************
         *                GEOMETRY OPTIMIZATION CYCLE   1            *
         *************************************************************
---------------------------------
CARTESIAN COORDINATES (ANGSTROEM)
---------------------------------
  O      0.000000    0.000000    0.000000
  H      0.000000    0.000000    0.971116

----------------------------
CARTESIAN COORDINATES (A.U.)
----------------------------
  NO LB      ZA    FRAG     MASS         X           Y           Z
   0 O     8.0000    0    15.999    0.000000    0.000000    0.000000
   1 H     1.0000    0     1.008    0.000000    0.000000    1.835143

--------------------------------
INTERNAL COORDINATES (ANGSTROEM)
--------------------------------
 O      0   0   0     0.000000000000     0.00000000     0.00000000
 H      1   0   0     0.971116000000     0.00000000     0.00000000

---------------------------
INTERNAL COORDINATES (A.U.)
---------------------------
 O      0   0   0     0.000000000000     0.00000000     0.00000000
 H      1   0   0     1.835143284269     0.00000000     0.00000000

---------------------
BASIS SET INFORMATION
---------------------
There are 2 groups of distinct atoms

 Group   1 Type O   : 11s6p2d1f contracted to 5s3p2d1f pattern {62111/411/11/1}
 Group   2 Type H   : 5s2p1d contracted to 3s2p1d pattern {311/11/1}

Atom   0O    basis set group =>   1
Atom   1H    basis set group =>   2
---------------------------------
AUXILIARY/J BASIS SET INFORMATION
---------------------------------
There are 2 groups of distinct atoms

 Group   1 Type O   : 12s5p4d2f1g contracted to 6s4p3d1f1g pattern {711111/2111/211/2/1}
 Group   2 Type H   : 5s2p1d contracted to 3s1p1d pattern {311/2/1}

Atom   0O    basis set group =>   1
Atom   1H    basis set group =>   2
---------------------------------
AUXILIARY/C BASIS SET INFORMATION
---------------------------------
There are 2 groups of distinct atoms

 Group   1 Type O   : 8s6p5d3f1g contracted to 8s6p4d3f1g pattern {11111111/111111/2111/111/1}
 Group   2 Type H   : 4s3p2d1f contracted to 4s3p2d1f pattern {1111/111/11/1}

Atom   0O    basis set group =>   1
Atom   1H    basis set group =>   2


           ************************************************************
           *        Program running with 8 parallel MPI-processes     *
           *              working on a common directory               *
           ************************************************************
------------------------------------------------------------------------------
                             ORCA STARTUP CALCULATIONS
                           -- RI-GTO INTEGRALS CHOSEN --
------------------------------------------------------------------------------
------------------------------------------------------------------------------
                   ___                                                        
                  /   \      - P O W E R E D   B Y -                         
                 /     \                                                     
                 |  |  |   _    _      __       _____    __    __             
                 |  |  |  | |  | |    /  \     |  _  \  |  |  /  |          
                  \  \/   | |  | |   /    \    | | | |  |  | /  /          
                 / \  \   | |__| |  /  /\  \   | |_| |  |  |/  /          
                |  |  |   |  __  | /  /__\  \  |    /   |      \           
                |  |  |   | |  | | |   __   |  |    \   |  |\   \          
                \     /   | |  | | |  |  |  |  | |\  \  |  | \   \       
                 \___/    |_|  |_| |__|  |__|  |_| \__\ |__|  \__/        
                                                                              
                      - O R C A' S   B I G   F R I E N D -                    
                                      &                                       
                       - I N T E G R A L  F E E D E R -                       
                                                                              
 v1 FN, 2020, v2 2021, v3 2022-2024                                           
------------------------------------------------------------------------------


----------------------
SHARK INTEGRAL PACKAGE
----------------------

Number of atoms                             ...      2
Number of basis functions                   ...     45
Number of shells                            ...     17
Maximum angular momentum                    ...      3
Integral batch strategy                     ... SHARK/LIBINT Hybrid
RI-J (if used) integral strategy            ... SPLIT-RIJ (Revised 2003 algorithm where possible)
Printlevel                                  ...      1
Contraction scheme used                     ... SEGMENTED contraction
Prescreening option                         ... SCHWARTZ
   Thresh                                   ... 2.500e-11
   Tcut                                     ... 2.500e-12
   Tpresel                                  ... 2.500e-12 
Coulomb Range Separation                    ... NOT USED
Exchange Range Separation                   ... NOT USED
Multipole approximations                    ... NOT USED
Finite Nucleus Model                        ... NOT USED
CABS basis                                  ... NOT available
Auxiliary Coulomb fitting basis             ... AVAILABLE
   # of basis functions in Aux-J            ...     60
   # of shells in Aux-J                     ...     20
   Maximum angular momentum in Aux-J        ...      4
Auxiliary J/K fitting basis                 ... NOT available
Auxiliary Correlation fitting basis         ... AVAILABLE
   # of basis functions in Aux-C            ...    106
   # of shells in Aux-C                     ...     32
   Maximum angular momentum in Aux-C        ...      4
Auxiliary 'external' fitting basis          ... NOT available

Checking pre-screening integrals            ... done (  0.0 sec) Dimension = 17
   => SHARK Basis and OBASIS are compatible. Storing Pre-screening
Shell pair information
Shell pair cut-off parameter TPreSel        ...   2.5e-12
Total number of shell pairs                 ...       153
Shell pairs after pre-screening             ...       153
Total number of primitive shell pairs       ...       431
Primitive shell pairs kept                  ...       422
          la=0 lb=0:     36 shell pairs
          la=1 lb=0:     40 shell pairs
          la=1 lb=1:     15 shell pairs
          la=2 lb=0:     24 shell pairs
          la=2 lb=1:     15 shell pairs
          la=2 lb=2:      6 shell pairs
          la=3 lb=0:      8 shell pairs
          la=3 lb=1:      5 shell pairs
          la=3 lb=2:      3 shell pairs
          la=3 lb=3:      1 shell pairs

Checking whether 4 symmetric matrices of dimension 45 fit in memory
:Max Core in MB      =  10000.00
 MB in use           =      3.35
 MB left             =   9996.65
 MB needed           =      0.03
 Data fit in memory  = YES
Calculating RI/J V-Matrix + Cholesky decomp.... done (  0.0 sec)
Calculating RI/C V-Matrix + Cholesky decomp.... done (  0.0 sec)
Calculating Nuclear repulsion               ... done (  0.0 sec) ENN=      4.359332630087 Eh

Diagonalization of the overlap matrix:
Smallest eigenvalue                        ... 3.319e-03
Time for diagonalization                   ...    0.000 sec
Threshold for overlap eigenvalues          ... 1.000e-07
Number of eigenvalues below threshold      ... 0
Time for construction of square roots      ...    0.001 sec
Total time needed                          ...    0.002 sec

-------------------
DFT GRID GENERATION
-------------------

General Integration Accuracy     IntAcc      ... 4.388
Radial Grid Type                 RadialGrid  ... OptM3 with GC (2021)
Angular Grid (max. ang.)         AngularGrid ... 4 (Lebedev-302)
Angular grid pruning method      GridPruning ... 4 (adaptive)
Weight generation scheme         WeightScheme... mBecke (2022)
Basis function cutoff            BFCut       ... 1.0000e-11
Integration weight cutoff        WCut        ... 1.0000e-14
Partially contracted basis set               ... off
Rotationally invariant grid construction     ... off
Angular grids for H and He will be reduced by one unit

Total number of grid points                  ...     9453
Total number of batches                      ...      149
Average number of points per batch           ...       63
Average number of grid points per atom       ...     4726

--------------------
COSX GRID GENERATION
--------------------

GRIDX 1
-------
General Integration Accuracy     IntAcc      ... 3.816
Radial Grid Type                 RadialGrid  ... OptM3 with GC (2021)
Angular Grid (max. ang.)         AngularGrid ... 1 (Lebedev-50)
Angular grid pruning method      GridPruning ... 4 (adaptive)
Weight generation scheme         WeightScheme... mBecke (2022)
Basis function cutoff            BFCut       ... 1.0000e-11
Integration weight cutoff        WCut        ... 1.0000e-14
Partially contracted basis set               ... on
Rotationally invariant grid construction     ... off
Angular grids for H and He will be reduced by one unit

Total number of grid points                  ...     1209
Total number of batches                      ...       10
Average number of points per batch           ...      120
Average number of grid points per atom       ...      604
UseSFitting                                  ... on

GRIDX 2
-------
General Integration Accuracy     IntAcc      ... 4.020
Radial Grid Type                 RadialGrid  ... OptM3 with GC (2021)
Angular Grid (max. ang.)         AngularGrid ... 2 (Lebedev-110)
Angular grid pruning method      GridPruning ... 4 (adaptive)
Weight generation scheme         WeightScheme... mBecke (2022)
Basis function cutoff            BFCut       ... 1.0000e-11
Integration weight cutoff        WCut        ... 1.0000e-14
Partially contracted basis set               ... on
Rotationally invariant grid construction     ... off
Angular grids for H and He will be reduced by one unit

Total number of grid points                  ...     2693
Total number of batches                      ...       22
Average number of points per batch           ...      122
Average number of grid points per atom       ...     1346
UseSFitting                                  ... on

GRIDX 3
-------
General Integration Accuracy     IntAcc      ... 4.338
Radial Grid Type                 RadialGrid  ... OptM3 with GC (2021)
Angular Grid (max. ang.)         AngularGrid ... 3 (Lebedev-194)
Angular grid pruning method      GridPruning ... 4 (adaptive)
Weight generation scheme         WeightScheme... mBecke (2022)
Basis function cutoff            BFCut       ... 1.0000e-11
Integration weight cutoff        WCut        ... 1.0000e-14
Partially contracted basis set               ... on
Rotationally invariant grid construction     ... off
Angular grids for H and He will be reduced by one unit

Total number of grid points                  ...     6002
Total number of batches                      ...       48
Average number of points per batch           ...      125
Average number of grid points per atom       ...     3001
UseSFitting                                  ... on
Grids setup in   0.1 sec
Initializing property integral containers    ... done (  0.0 sec)

SHARK setup successfully completed in   0.2 seconds

Maximum memory used throughout the entire STARTUP-calculation: 13.8 MB


           ************************************************************
           *        Program running with 8 parallel MPI-processes     *
           *              working on a common directory               *
           ************************************************************
-------------------------------------------------------------------------------
                                 ORCA GUESS
                   Start orbitals & Density for SCF / CASSCF
-------------------------------------------------------------------------------

------------
SCF SETTINGS
------------
Hamiltonian:
 Density Functional     Method          .... DFT(GTOs)
 Exchange Functional    Exchange        .... PBE
   PBE kappa parameter   XKappa         ....  0.804000
   PBE mue parameter    XMuePBE         ....  0.219520
 Correlation Functional Correlation     .... P86
 LDA part of GGA corr.  LDAOpt          .... VWN-5
 Gradients option       PostSCFGGA      .... off
 Hybrid DFT is turned on
   Fraction HF Exchange ScalHFX         ....  0.690000
   Scaling of DF-GGA-X  ScalDFX         ....  0.310000
   Scaling of DF-GGA-C  ScalDFC         ....  0.422400
   Scaling of DF-LDA-C  ScalLDAC        ....  0.422400
   Perturbative correction              ....  1.000000
 RI-approximation to the Coulomb term is turned on
   Number of AuxJ basis functions       .... 60
   RIJ-COSX (HFX calculated with COS-X)).... on


General Settings:
 Integral files         IntName         .... opt
 Hartree-Fock type      HFTyp           .... UHF
 Total Charge           Charge          ....    0
 Multiplicity           Mult            ....    2
 Number of Electrons    NEL             ....    9
 Basis Dimension        Dim             ....   45
 Nuclear Repulsion      ENuc            ....      4.3593326301 Eh

Convergence Acceleration:
 AO-DIIS                CNVDIIS         .... on
   Start iteration      DIISMaxIt       ....    12
   Startup error        DIISStart       ....  0.200000
   # of expansion vecs  DIISMaxEq       ....     5
   Bias factor          DIISBfac        ....   1.050
   Max. coefficient     DIISMaxC        ....  10.000
 MO-DIIS                CNVKDIIS        .... off
 Trust-Rad. Augm. Hess. CNVTRAH         .... auto
   Auto Start mean grad. ratio tolernc. ....  1.125000
   Auto Start start iteration           ....    50
   Auto Start num. interpolation iter.  ....    10
   Max. Number of Micro iterations      ....    24
   Max. Number of Macro iterations      .... Maxiter - #DIIS iter
   Number of Davidson start vectors     ....     2
   Converg. threshold    (grad. norm)   ....   1.000e-05
   Grad. Scal. Fac. for Micro threshold ....   0.100
   Minimum threshold for Micro iter.    ....   1.000e-02
   NR start threshold (gradient norm)   ....   1.000e-04
   Initial trust radius                 ....   0.400
   Minimum AH scaling param. (alpha)    ....   1.000
   Maximum AH scaling param. (alpha)    .... 1000.000
   Quad. conv. algorithm                .... NR
   White noise on init. David. guess    .... on
   Maximum white noise                  ....   0.010
   Pseudo random numbers                .... off
   Inactive MOs                         .... canonical
   Orbital update algorithm             .... Taylor
   Preconditioner                       .... Diag
   Full preconditioner red. dimension   ....   250
 SOSCF                 CNVSOSCF           .... on
   Start iteration     SOSCFMaxIt         ....   150
   Startup grad/error  SOSCFStart         ....  0.003300
   Hessian update      SOSCFHessUp        .... L-BFGS
   Autom. constraints  SOSCFAutoConstrain .... off
 Level Shifting         CNVShift        .... on
   Level shift para.    LevelShift      ....    0.2500
   Turn off err/grad.   ShiftErr        ....    0.0010
 Zerner damping         CNVZerner       .... off
 Static damping         CNVDamp         .... on
   Fraction old density DampFac         ....    0.7000
   Max. Damping (<1)    DampMax         ....    0.9800
   Min. Damping (>=0)   DampMin         ....    0.0000
   Turn off err/grad.   DampErr         ....    0.1000

SCF Procedure:
 Maximum # iterations   MaxIter         ....   125
 SCF integral mode      SCFMode         .... Direct
   Integral package                     .... SHARK and LIBINT hybrid scheme
 Reset frequency        DirectResetFreq ....    20
 Integral Threshold     Thresh          ....  2.500e-11 Eh
 Primitive CutOff       TCut            ....  2.500e-12 Eh

Convergence Tolerance:
 Convergence Check Mode ConvCheckMode   .... Total+1el-Energy
 Convergence forced     ConvForced      .... 0
 Energy Change          TolE            ....  1.000e-08 Eh
 1-El. energy change                    ....  1.000e-05 Eh
 Orbital Gradient       TolG            ....  1.000e-05
 Orbital Rotation angle TolX            ....  1.000e-05
 DIIS Error             TolErr          ....  5.000e-07

------------------------------
INITIAL GUESS: MODEL POTENTIAL
------------------------------
Loading Hartree-Fock densities                     ... done
Calculating cut-offs                               ... done
Initializing the effective Hamiltonian             ... done
Setting up the integral package (SHARK)            ... done
Starting the Coulomb interaction                   ... done (   0.0 sec)
Making the grid                                    ... done (   0.0 sec)
Mapping shells                                     ... done
Starting the XC term evaluation                    ... done (   0.0 sec)
  promolecular density results
     # of electrons  =      8.999396635
     EX              =     -8.367942124
     EC              =      0.031556905
     EX+EC           =     -8.336385219
Transforming the Hamiltonian                       ... done (   0.0 sec)
Diagonalizing the Hamiltonian                      ... done (   0.0 sec)
Back transforming the eigenvectors                 ... done (   0.0 sec)
Now organizing SCF variables                       ... done
                      ------------------
                      INITIAL GUESS DONE (   0.0 sec)
                      ------------------
             **** ENERGY FILE WAS UPDATED (opt.en.tmp) ****
Finished Guess after   0.5 sec
Maximum memory used throughout the entire GUESS-calculation: 6.9 MB


           ************************************************************
           *        Program running with 8 parallel MPI-processes     *
           *              working on a common directory               *
           ************************************************************

-------------------------------------------------------------------------------------------
                                      ORCA LEAN-SCF
                              memory conserving SCF solver
-------------------------------------------------------------------------------------------

----------------------------------------D-I-I-S--------------------------------------------
Iteration    Energy (Eh)           Delta-E    RMSDP     MaxDP     DIISErr   Damp  Time(sec)
-------------------------------------------------------------------------------------------
               ***  Starting incremental Fock matrix formation  ***
    1    -75.5303477104489787     0.00e+00  2.05e-03  1.07e-02  7.35e-02  0.700   0.1
    2    -75.5367223817282110    -6.37e-03  1.50e-03  7.73e-03  4.80e-02  0.700   0.1
                               ***Turning on AO-DIIS***
    3    -75.5404393109449046    -3.72e-03  8.45e-04  3.86e-03  3.00e-02  0.700   0.1
    4    -75.5428621458199245    -2.42e-03  2.29e-03  1.01e-02  2.30e-02  0.000   0.1
    5    -75.5488836424069348    -6.02e-03  4.32e-04  2.35e-03  6.05e-03  0.000   0.1
                              *** Initializing SOSCF ***
---------------------------------------S-O-S-C-F--------------------------------------
Iteration    Energy (Eh)           Delta-E    RMSDP     MaxDP     MaxGrad    Time(sec)
--------------------------------------------------------------------------------------
    6    -75.5489833585857582    -9.97e-05  1.92e-04  7.15e-04  1.69e-03     0.1
               *** Restarting incremental Fock matrix formation ***
    7    -75.5488792473886548     1.04e-04  1.21e-04  5.40e-04  8.75e-04     0.1
    8    -75.5488846893379105    -5.44e-06  1.66e-04  6.12e-04  4.37e-04     0.1
    9    -75.5488872411701351    -2.55e-06  2.63e-05  1.12e-04  3.38e-04     0.1
   10    -75.5488874678881785    -2.27e-07  8.48e-06  3.09e-05  5.59e-05     0.1
   11    -75.5488874891184281    -2.12e-08  4.86e-06  2.61e-05  1.92e-05     0.1
   12    -75.5488874931031518    -3.98e-09  5.27e-07  2.14e-06  3.74e-06     0.1
                 **** Energy Check signals convergence ****

               *****************************************************
               *                     SUCCESS                       *
               *           SCF CONVERGED AFTER  12 CYCLES          *
               *****************************************************

Recomputing exchange energy using gridx3       ... done (    0.042 sec)
Old exchange energy                            :     -5.907150574 Eh
New exchange energy                            :     -5.907151220 Eh
Exchange energy change after final integration :     -0.000000646 Eh
Total energy after final integration           :    -75.548888139 Eh
             **** ENERGY FILE WAS UPDATED (opt.en.tmp) ****

----------------
TOTAL SCF ENERGY
----------------

Total Energy       :        -75.54888813886591 Eh           -2055.78976 eV

Components:
Nuclear Repulsion  :          4.35933263008745 Eh             118.62347 eV
Electronic Energy  :        -79.90822012309815 Eh           -2174.41321 eV
One Electron Energy:       -112.67651633850889 Eh           -3066.08389 eV
Two Electron Energy:         32.76829621541075 Eh             891.67067 eV

Virial components:
Potential Energy   :       -150.98058796599128 Eh           -4108.39067 eV
Kinetic Energy     :         75.43169982712536 Eh            2052.60090 eV
Virial Ratio       :          2.00155356848658

DFT components:
N(Alpha)           :        5.000000370816 electrons
N(Beta)            :        4.000000519102 electrons
N(Total)           :        9.000000889919 electrons
E(X)               :       -2.646077442537 Eh       
E(C)               :       -0.133554727209 Eh       
E(XC)              :       -2.779632169746 Eh       

---------------
SCF CONVERGENCE
---------------

  Last Energy change         ...    3.9847e-09  Tolerance :   1.0000e-08
  Last MAX-Density change    ...    2.1408e-06  Tolerance :   1.0000e-07
  Last RMS-Density change    ...    5.2704e-07  Tolerance :   5.0000e-09
  Last DIIS Error            ...    1.6946e-03  Tolerance :   5.0000e-07
  Last Orbital Gradient      ...    3.7416e-06  Tolerance :   1.0000e-05
  Last Orbital Rotation      ...    5.3211e-06  Tolerance :   1.0000e-05


----------------------
UHF SPIN CONTAMINATION
----------------------

Warning: in a DFT calculation there is little theoretical justification to 
         calculate <S**2> as in Hartree-Fock theory. We will do it anyways
         but you should keep in mind that the values have only limited relevance

Expectation value of <S**2>     :     0.754566
Ideal value S*(S+1) for S=0.5   :     0.750000
Deviation                       :     0.004566

----------------
ORBITAL ENERGIES
----------------
                 SPIN UP ORBITALS
  NO   OCC          E(Eh)            E(eV) 
   0   1.0000     -20.077088      -546.3253 
   1   1.0000      -1.247793       -33.9542 
   2   1.0000      -0.605106       -16.4658 
   3   1.0000      -0.567805       -15.4508 
   4   1.0000      -0.478616       -13.0238 
   5   0.0000       0.093562         2.5460 
   6   0.0000       0.477937        13.0053 
   7   0.0000       0.482556        13.1310 
   8   0.0000       0.497918        13.5490 
   9   0.0000       0.516391        14.0517 
  10   0.0000       0.621535        16.9128 
  11   0.0000       0.791145        21.5281 
  12   0.0000       0.808604        22.0032 
  13   0.0000       1.282552        34.9000 
  14   0.0000       1.568216        42.6733 
  15   0.0000       1.568524        42.6817 

                 SPIN DOWN ORBITALS
  NO   OCC          E(Eh)            E(eV) 
   0   1.0000     -20.042804      -545.3924 
   1   1.0000      -1.123798       -30.5801 
   2   1.0000      -0.568488       -15.4694 
   3   1.0000      -0.440701       -11.9921 
   4   0.0000      -0.001669        -0.0454 
   5   0.0000       0.100586         2.7371 
   6   0.0000       0.485300        13.2057 
   7   0.0000       0.510934        13.9032 
   8   0.0000       0.527547        14.3553 
   9   0.0000       0.588135        16.0040 
  10   0.0000       0.640536        17.4299 
  11   0.0000       0.806657        21.9503 
  12   0.0000       0.813121        22.1261 
  13   0.0000       1.293164        35.1888 
  14   0.0000       1.640853        44.6499 
*Only the first 10 virtual orbitals were printed.

                    ********************************
                    * MULLIKEN POPULATION ANALYSIS *
                    ********************************

--------------------------------------------
MULLIKEN ATOMIC CHARGES AND SPIN POPULATIONS
--------------------------------------------
   0 O :   -0.235658    1.030331
   1 H :    0.235658   -0.030331
Sum of atomic charges         :    0.0000000
Sum of atomic spin populations:    1.0000000

-----------------------------------------------------
MULLIKEN REDUCED ORBITAL CHARGES AND SPIN POPULATIONS
-----------------------------------------------------
CHARGE
  0 O s       :     3.899874  s :     3.899874
      pz      :     1.381544  p :     4.324010
      px      :     1.473131
      py      :     1.469335
      dz2     :     0.008576  d :     0.011374
      dxz     :     0.001056
      dyz     :     0.001054
      dx2y2   :     0.000000
      dxy     :     0.000688
      f0      :     0.000223  f :     0.000400
      f+1     :     0.000025
      f-1     :     0.000025
      f+2     :     0.000000
      f-2     :     0.000027
      f+3     :     0.000050
      f-3     :     0.000050

  1 H s       :     0.678693  s :     0.678693
      pz      :     0.027129  p :     0.077631
      px      :     0.025297
      py      :     0.025205
      dz2     :     0.003241  d :     0.008018
      dxz     :     0.002390
      dyz     :     0.002381
      dx2y2   :     0.000000
      dxy     :     0.000006


SPIN
  0 O s       :     0.024054  s :     0.024054
      pz      :     0.018909  p :     1.006009
      px      :     0.491636
      py      :     0.495464
      dz2     :    -0.000426  d :     0.000438
      dxz     :     0.000426
      dyz     :     0.000428
      dx2y2   :     0.000000
      dxy     :     0.000010
      f0      :    -0.000262  f :    -0.000170
      f+1     :    -0.000016
      f-1     :    -0.000016
      f+2     :     0.000000
      f-2     :     0.000025
      f+3     :     0.000049
      f-3     :     0.000049

  1 H s       :    -0.040028  s :    -0.040028
      pz      :    -0.002305  p :     0.008535
      px      :     0.005389
      py      :     0.005452
      dz2     :     0.000021  d :     0.001162
      dxz     :     0.000567
      dyz     :     0.000572
      dx2y2   :     0.000000
      dxy     :     0.000002



                     *******************************
                     * LOEWDIN POPULATION ANALYSIS *
                     *******************************

-------------------------------------------
LOEWDIN ATOMIC CHARGES AND SPIN POPULATIONS
-------------------------------------------
   0 O :    0.157288    0.952593
   1 H :   -0.157288    0.047407

----------------------------------------------------
LOEWDIN REDUCED ORBITAL CHARGES AND SPIN POPULATIONS
----------------------------------------------------
CHARGE
  0 O s       :     3.553490  s :     3.553490
      pz      :     1.491768  p :     4.269269
      px      :     1.390540
      py      :     1.386962
      dz2     :     0.017275  d :     0.018392
      dxz     :     0.000219
      dyz     :     0.000218
      dx2y2   :     0.000000
      dxy     :     0.000681
      f0      :     0.000837  f :     0.001560
      f+1     :     0.000298
      f-1     :     0.000298
      f+2     :     0.000000
      f-2     :     0.000027
      f+3     :     0.000050
      f-3     :     0.000050

  1 H s       :     0.716105  s :     0.716105
      pz      :     0.186699  p :     0.348915
      px      :     0.081232
      py      :     0.080984
      dz2     :     0.033105  d :     0.092268
      dxz     :     0.029611
      dyz     :     0.029539
      dx2y2   :     0.000000
      dxy     :     0.000013


SPIN
  0 O s       :     0.009230  s :     0.009230
      pz      :     0.010880  p :     0.943623
      px      :     0.464564
      py      :     0.468178
      dz2     :    -0.000604  d :    -0.000470
      dxz     :     0.000061
      dyz     :     0.000062
      dx2y2   :     0.000000
      dxy     :     0.000010
      f0      :    -0.000266  f :     0.000211
      f+1     :     0.000176
      f-1     :     0.000177
      f+2     :     0.000000
      f-2     :     0.000025
      f+3     :     0.000049
      f-3     :     0.000049

  1 H s       :    -0.026478  s :    -0.026478
      pz      :     0.005334  p :     0.051214
      px      :     0.022837
      py      :     0.023043
      dz2     :     0.001867  d :     0.022671
      dxz     :     0.010362
      dyz     :     0.010440
      dx2y2   :     0.000000
      dxy     :     0.000002



                      *****************************
                      * MAYER POPULATION ANALYSIS *
                      *****************************

  NA   - Mulliken gross atomic population
  ZA   - Total nuclear charge
  QA   - Mulliken gross atomic charge
  VA   - Mayer's total valence
  BVA  - Mayer's bonded valence
  FA   - Mayer's free valence

  ATOM       NA         ZA         QA         VA         BVA        FA
  0 O      8.2357     8.0000    -0.2357     1.9794     1.0010     0.9784
  1 H      0.7643     1.0000     0.2357     1.0029     1.0010     0.0018

  Mayer bond orders larger than 0.100000
B(  0-O ,  1-H ) :   1.0010 

-------
TIMINGS
-------

Total SCF time: 0 days 0 hours 0 min 1 sec 

Total time                  ....       1.703 sec
Sum of individual times     ....       1.595 sec  ( 93.6%)

SCF preparation             ....       0.515 sec  ( 30.3%)
Fock matrix formation       ....       0.825 sec  ( 48.5%)
  Startup                   ....       0.016 sec  (  1.9% of F)
  Split-RI-J                ....       0.048 sec  (  5.8% of F)
  Chain of spheres X        ....       0.511 sec  ( 61.9% of F)
  XC integration            ....       0.186 sec  ( 22.5% of F)
    Basis function eval.    ....       0.020 sec  ( 11.0% of XC)
    Density eval.           ....       0.011 sec  (  5.9% of XC)
    XC-Functional eval.     ....       0.021 sec  ( 11.1% of XC)
    XC-Potential eval.      ....       0.018 sec  (  9.6% of XC)
Diagonalization             ....       0.000 sec  (  0.0%)
Density matrix formation    ....       0.055 sec  (  3.2%)
Total Energy calculation    ....       0.027 sec  (  1.6%)
Population analysis         ....       0.013 sec  (  0.8%)
Orbital Transformation      ....       0.015 sec  (  0.9%)
Orbital Orthonormalization  ....       0.000 sec  (  0.0%)
DIIS solution               ....       0.077 sec  (  4.5%)
SOSCF solution              ....       0.066 sec  (  3.9%)
Finished LeanSCF after   1.7 sec

Maximum memory used throughout the entire LEANSCF-calculation: 5.4 MB


           ************************************************************
           *        Program running with 8 parallel MPI-processes     *
           *              working on a common directory               *
           ************************************************************

------------------------------------------------------------------------------
                                ORCA  MP2 
------------------------------------------------------------------------------

Freezing NCore=2 chemical core electrons

----------------------
RI-MP2 ENERGY+GRADIENT
----------------------
Dimension of the orbital basis            ...   45
Dimension of the AuxC basis               ...  106
Memory devoted to MP2                     ... 10000 MB   
Data format for matrix containers         ... DOUBLE
Compression type for matrix containers    ... UNCOMPRESSED
Scaling for aa/bb pairs                   ...   5.660e-02
Scaling for ab pairs                      ...   5.935e-01
Overall scaling of the MP2 energy         ...   1.000e+00

-----------------------
SHARK RI TRANSFORMATION
-----------------------

Number of basis functions                ...     45
Number of aux functions                  ...    106
Number of operators                      ...      2
Generation of IJK                        ... YES
Generation of IAK                        ... YES
Generation of ABK                        ... NO
Orbital Range Operator  0:    0-   4 to    5-  44

Orbital Range Operator  1:    0-   3 to    4-  44

Aux basis identifier                     ...   AUXC
Contraction scheme used                  ... SEGMENTED
Do orthogonalization                     ... YES
All operator combinations                ... NO
Transpose (ia|K)                         ... NO
Integral generator used                  ... LIBINT
Starting integral generation + trafo... 
Half trafo (segmented) done. Total time =  0.0 sec. integrals=  0.0 sec trafo=  0.0 sec
Integral generation and half transformation done (  0.0 sec)

Reading or making V^(-1/2)          ... done (  0.0 sec)
Sorting IJK integrals               ... done (  0.0 sec)
Sorting IAK integrals               ... done (  0.0 sec)
Sorting IJK integrals               ... done (  0.0 sec)
Sorting IAK integrals               ... done (  0.0 sec)

SHARK RI integral transformation done. Total time =  0.1 sec.

Opening buffers                              ... done
Frozen core precalculation                   ... done

Starting loop over batches of integrals:

Operator 0  - window                       ... (  1-  4)x(  5- 44)
Operator 0  - Memory available             ... 10000 MB
Operator 0  - Memory needed per MO         ...   0.0 MB
Operator 0  - Number of orbitals per batch ... 1
Operator 0  - Number of batches            ... 1

OPERATOR  0   PASS   0:  MOs     1 ...    1 +    2 ...    2 +    3 ...    3 +    4 ...    4
  Reading integrals       ... ok
Closing buffer GIPV ( 0.00 GB; CompressionRatio= 1.00)

Operator 1  - window                       ... (  1-  3)x(  4- 44)
Operator 1  - Memory available             ... 10000 MB
Operator 1  - Memory needed per MO         ...   0.0 MB
Operator 1  - Number of orbitals per batch ... 1
Operator 1  - Number of batches            ... 1

OPERATOR  1   PASS   0:  MOs     1 ...    1 +    2 ...    2 +    3 ...    3
  Reading integrals       ... ok
Closing buffer GIPV ( 0.00 GB; CompressionRatio= 1.00)
Time spent in pair loops =     0.014 sec
Deleting buffers (Ka|jb) ...done

Spin-scaled correlation energy components}
 E2 for alpha/alpha pairs :     -0.001995719 Eh
 E2 for beta/beta   pairs :     -0.000930165 Eh
 E2 for alpha/beta  pairs :     -0.100140758 Eh


-----------------------------------------------
 RI-MP2 CORRELATION ENERGY:     -0.103066642 Eh
-----------------------------------------------


---------------------
MP2 DENSITY FORMATION
---------------------

Completing the external part of the density      ... done
Storing the unrelaxed density                    ... done

Re-sorting 3-index density container for op 0    ... done
Re-sorting 3-index density container for op 1    ... done
Computing external part of the Lagrangian        ... done
Calculating the xc-kernel                        ... done
Calculating G(D)                                 ... done
Completing the Lagrangian                        ... done
Solving the Z-vector equations                   ... Using XC Grid                  ... (opt.grid_cpscf.tmp) 
Recalculating density on grid  ... (opt.grho_cpscf0.tmp) done
Calculating the xc-kernel      ... (opt.fxc_cpscf0.tmp) done

-------------------
SHARK CP-SCF DRIVER
-------------------

Dimension of the orbital basis          ...     45
Dimension of the CPSCF-problem          ...    364
Number of operators                     ...      2
Max. number of iterations               ...    128
Convergence Tolerance                   ... 1.0e-04
Number of perturbations                 ...      1
Perturbation type                       ... REAL

----------------------------
POPLE LINEAR EQUATION SOLVER
----------------------------

  ITERATION   0:   ||err||_max =   4.9437e-03 (   0.1 sec)
  ITERATION   1:   ||err||_max =   1.7986e-03 (   0.1 sec)
  ITERATION   2:   ||err||_max =   9.5347e-04 (   0.1 sec)
  ITERATION   3:   ||err||_max =   3.6592e-04 (   0.1 sec)
  ITERATION   4:   ||err||_max =   7.3467e-05 (   0.1 sec)
done
Finalizing the relaxed density                   ... done
Transforming P to the AO basis                   ... done
Storing the relaxed density                      ... done

------------------------------------
ENERGY WEIGHTED DENSITY FINALIZATION
------------------------------------

Gathering the parts of the W-matrix              ... done
Forming the Z-density                            ... done
Transforming Z to the AO basis                   ... done
Calculating G(Z)                                 ... done
Finalizing the W-matrix                          ... done
Transforming W to the AO basis and storing       ... done

----------------------------------
MP2 DERIVATIVE INTEGRAL GENERATION
----------------------------------

Input SCF Electron Density              ... opt.scfp
Input Correlated Electron Density       ... opt.pmp2re
Input Energy Weighted Density           ... opt.wmp2.tmp

Nuclear repulsion gradient              ... done (  0.0 sec)
HCore & Overlap gradient  (SHARK)       ... done (  0.0 sec)
Two-electron RIJ gradient terms         ... done (  0.1 sec)

-----------------------------------------------------------
MP2 COSX Grid Generation
-----------------------------------------------------------

General Integration Accuracy     IntAcc      ... 4.871
Radial Grid Type                 RadialGrid  ... OptM3 with GC (2021)
Angular Grid (max. ang.)         AngularGrid ... 4 (Lebedev-302)
Angular grid pruning method      GridPruning ... 4 (adaptive)
Weight generation scheme         WeightScheme... mBecke (2022)
Basis function cutoff            BFCut       ... 1.0000e-11
Integration weight cutoff        WCut        ... 1.0000e-14
Partially contracted basis set               ... on
Rotationally invariant grid construction     ... off
Angular grids for H and He will be reduced by one unit

Total number of grid points                  ...    11656
Total number of batches                      ...       92
Average number of points per batch           ...      126
Average number of grid points per atom       ...     5828
UseSFitting                                  ... on
Two-electron COSX gradient terms        ... 
Integration Timings:
Total Time                  =     0.1 sec
Basis fcn evaluation        =     0.0 sec
Density evaluation          =     0.0 sec
A evaluation                =     0.1 sec
A derivative evaluation     =     0.0 sec
S-fit derivative evaluation =     0.0 sec
anal. over. der. evaluation =     0.0 sec
num. over. der. evaluation  =     0.0 sec
K(P) evaluation             =     0.0 sec
finalize                    =     0.0 sec

done (  0.1 sec)
DFT XC gradient                         ... done (  0.0 sec)
Empirical dispersion gradient           ... done (  0.0 sec)

                *********************************************
                * UNRELAXED MP2 DENSITY POPULATION ANALYSIS *
                *********************************************

------------------------------------------------------------------------------
                           ORCA POPULATION ANALYSIS
------------------------------------------------------------------------------
Input electron density              ... opt.pmp2ur
Input spin density                  ... opt.rmp2ur
BaseName (.gbw .S,...)              ... opt

                    ********************************
                    * MULLIKEN POPULATION ANALYSIS *
                    ********************************

------------------------------------------
MULLIKEN ATOMIC CHARGES AND SPIN DENSITIES
------------------------------------------
   0 O :   -0.232605    1.029574
   1 H :    0.232605   -0.029574
Sum of atomic charges       :    0.0000000
Sum of atomic spin densities:    1.0000000

---------------------------------------------------
MULLIKEN REDUCED ORBITAL CHARGES AND SPIN DENSITIES
---------------------------------------------------
CHARGE
  0 O s       :     3.895316  s :     3.895316
      pz      :     1.376536  p :     4.313111
      px      :     1.470173
      py      :     1.466403
      dz2     :     0.010698  d :     0.022603
      dxz     :     0.003304
      dyz     :     0.003300
      dx2y2   :     0.002398
      dxy     :     0.002903
      f0      :     0.000395  f :     0.001575
      f+1     :     0.000199
      f-1     :     0.000199
      f+2     :     0.000176
      f-2     :     0.000191
      f+3     :     0.000207
      f-3     :     0.000207
  1 H s       :     0.679918  s :     0.679918
      pz      :     0.026956  p :     0.079181
      px      :     0.026159
      py      :     0.026066
      dz2     :     0.003299  d :     0.008295
      dxz     :     0.002438
      dyz     :     0.002430
      dx2y2   :     0.000062
      dxy     :     0.000065

SPIN
  0 O s       :     0.026091  s :     0.026091
      pz      :     0.018642  p :     1.000903
      px      :     0.489227
      py      :     0.493034
      dz2     :    -0.000320  d :     0.002584
      dxz     :     0.000697
      dyz     :     0.000703
      dx2y2   :     0.000800
      dxy     :     0.000704
      f0      :    -0.000246  f :    -0.000004
      f+1     :    -0.000003
      f-1     :    -0.000003
      f+2     :     0.000032
      f-2     :     0.000047
      f+3     :     0.000085
      f-3     :     0.000085
  1 H s       :    -0.039461  s :    -0.039461
      pz      :    -0.002295  p :     0.008711
      px      :     0.005471
      py      :     0.005535
      dz2     :     0.000018  d :     0.001176
      dxz     :     0.000567
      dyz     :     0.000572
      dx2y2   :     0.000010
      dxy     :     0.000010


                     *******************************
                     * LOEWDIN POPULATION ANALYSIS *
                     *******************************

-----------------------------------------
LOEWDIN ATOMIC CHARGES AND SPIN DENSITIES
-----------------------------------------
   0 O :    0.159525    0.951961
   1 H :   -0.159525    0.048039

--------------------------------------------------
LOEWDIN REDUCED ORBITAL CHARGES AND SPIN DENSITIES
--------------------------------------------------
CHARGE
  0 O s       :     3.549744  s :     3.549744
      pz      :     1.485597  p :     4.257913
      px      :     1.387935
      py      :     1.384381
      dz2     :     0.020051  d :     0.030005
      dxz     :     0.002350
      dyz     :     0.002348
      dx2y2   :     0.002378
      dxy     :     0.002878
      f0      :     0.001081  f :     0.002813
      f+1     :     0.000477
      f-1     :     0.000477
      f+2     :     0.000175
      f-2     :     0.000189
      f+3     :     0.000207
      f-3     :     0.000207
  1 H s       :     0.715078  s :     0.715078
      pz      :     0.187875  p :     0.351522
      px      :     0.081948
      py      :     0.081700
      dz2     :     0.033694  d :     0.092925
      dxz     :     0.029563
      dyz     :     0.029491
      dx2y2   :     0.000084
      dxy     :     0.000092

SPIN
  0 O s       :     0.010951  s :     0.010951
      pz      :     0.010828  p :     0.939011
      px      :     0.462294
      py      :     0.465889
      dz2     :    -0.000497  d :     0.001618
      dxz     :     0.000310
      dyz     :     0.000314
      dx2y2   :     0.000793
      dxy     :     0.000698
      f0      :    -0.000250  f :     0.000380
      f+1     :     0.000191
      f-1     :     0.000192
      f+2     :     0.000032
      f-2     :     0.000046
      f+3     :     0.000085
      f-3     :     0.000085
  1 H s       :    -0.025802  s :    -0.025802
      pz      :     0.005363  p :     0.051306
      px      :     0.022868
      py      :     0.023075
      dz2     :     0.001835  d :     0.022535
      dxz     :     0.010295
      dyz     :     0.010372
      dx2y2   :     0.000017
      dxy     :     0.000016


                      *****************************
                      * MAYER POPULATION ANALYSIS *
                      *****************************

  NA   - Mulliken gross atomic population
  ZA   - Total nuclear charge
  QA   - Mulliken gross atomic charge
  VA   - Mayer's total valence
  BVA  - Mayer's bonded valence
  FA   - Mayer's free valence

  ATOM       NA         ZA         QA         VA         BVA        FA
  0 O      8.2326     8.0000    -0.2326     2.1083     0.9737     1.1346
  1 H      0.7674     1.0000     0.2326     1.0095     0.9737     0.0358

  Mayer bond orders larger than 0.100000
B(  0-O ,  1-H ) :   0.9737 


                *******************************************
                * RELAXED MP2 DENSITY POPULATION ANALYSIS *
                *******************************************

------------------------------------------------------------------------------
                           ORCA POPULATION ANALYSIS
------------------------------------------------------------------------------
Input electron density              ... opt.pmp2re
Input spin density                  ... opt.rmp2re
BaseName (.gbw .S,...)              ... opt

                    ********************************
                    * MULLIKEN POPULATION ANALYSIS *
                    ********************************

------------------------------------------
MULLIKEN ATOMIC CHARGES AND SPIN DENSITIES
------------------------------------------
   0 O :   -0.225495    1.019342
   1 H :    0.225495   -0.019342
Sum of atomic charges       :    0.0000000
Sum of atomic spin densities:    1.0000000

---------------------------------------------------
MULLIKEN REDUCED ORBITAL CHARGES AND SPIN DENSITIES
---------------------------------------------------
CHARGE
  0 O s       :     3.898505  s :     3.898505
      pz      :     1.370621  p :     4.303447
      px      :     1.468295
      py      :     1.464531
      dz2     :     0.010247  d :     0.021980
      dxz     :     0.003316
      dyz     :     0.003312
      dx2y2   :     0.002398
      dxy     :     0.002707
      f0      :     0.000388  f :     0.001563
      f+1     :     0.000198
      f-1     :     0.000198
      f+2     :     0.000176
      f-2     :     0.000190
      f+3     :     0.000206
      f-3     :     0.000206
  1 H s       :     0.683616  s :     0.683616
      pz      :     0.026746  p :     0.082695
      px      :     0.028023
      py      :     0.027925
      dz2     :     0.003194  d :     0.008194
      dxz     :     0.002441
      dyz     :     0.002433
      dx2y2   :     0.000062
      dxy     :     0.000064

SPIN
  0 O s       :     0.020681  s :     0.020681
      pz      :     0.014792  p :     0.995833
      px      :     0.488620
      py      :     0.492421
      dz2     :    -0.000160  d :     0.002818
      dxz     :     0.000691
      dyz     :     0.000698
      dx2y2   :     0.000800
      dxy     :     0.000790
      f0      :    -0.000232  f :     0.000010
      f+1     :    -0.000003
      f-1     :    -0.000003
      f+2     :     0.000032
      f-2     :     0.000047
      f+3     :     0.000085
      f-3     :     0.000085
  1 H s       :    -0.030665  s :    -0.030665
      pz      :    -0.002080  p :     0.010134
      px      :     0.006073
      py      :     0.006141
      dz2     :     0.000005  d :     0.001189
      dxz     :     0.000579
      dyz     :     0.000585
      dx2y2   :     0.000010
      dxy     :     0.000011


                     *******************************
                     * LOEWDIN POPULATION ANALYSIS *
                     *******************************

-----------------------------------------
LOEWDIN ATOMIC CHARGES AND SPIN DENSITIES
-----------------------------------------
   0 O :    0.163523    0.947199
   1 H :   -0.163523    0.052801

--------------------------------------------------
LOEWDIN REDUCED ORBITAL CHARGES AND SPIN DENSITIES
--------------------------------------------------
CHARGE
  0 O s       :     3.550475  s :     3.550475
      pz      :     1.483462  p :     4.253409
      px      :     1.386749
      py      :     1.383198
      dz2     :     0.020057  d :     0.029779
      dxz     :     0.002332
      dyz     :     0.002329
      dx2y2   :     0.002378
      dxy     :     0.002684
      f0      :     0.001105  f :     0.002814
      f+1     :     0.000467
      f-1     :     0.000467
      f+2     :     0.000175
      f-2     :     0.000188
      f+3     :     0.000206
      f-3     :     0.000206
  1 H s       :     0.715967  s :     0.715967
      pz      :     0.188322  p :     0.355314
      px      :     0.083621
      py      :     0.083371
      dz2     :     0.033929  d :     0.092241
      dxz     :     0.029104
      dyz     :     0.029034
      dx2y2   :     0.000084
      dxy     :     0.000090

SPIN
  0 O s       :     0.009426  s :     0.009426
      pz      :     0.008358  p :     0.935467
      px      :     0.461759
      py      :     0.465350
      dz2     :    -0.000281  d :     0.001915
      dxz     :     0.000308
      dyz     :     0.000312
      dx2y2   :     0.000793
      dxy     :     0.000783
      f0      :    -0.000229  f :     0.000391
      f+1     :     0.000186
      f-1     :     0.000187
      f+2     :     0.000032
      f-2     :     0.000046
      f+3     :     0.000085
      f-3     :     0.000085
  1 H s       :    -0.020300  s :    -0.020300
      pz      :     0.003922  p :     0.051231
      px      :     0.023549
      py      :     0.023760
      dz2     :     0.001444  d :     0.021869
      dxz     :     0.010158
      dyz     :     0.010233
      dx2y2   :     0.000017
      dxy     :     0.000018


                      *****************************
                      * MAYER POPULATION ANALYSIS *
                      *****************************

  NA   - Mulliken gross atomic population
  ZA   - Total nuclear charge
  QA   - Mulliken gross atomic charge
  VA   - Mayer's total valence
  BVA  - Mayer's bonded valence
  FA   - Mayer's free valence

  ATOM       NA         ZA         QA         VA         BVA        FA
  0 O      8.2255     8.0000    -0.2255     2.1131     0.9837     1.1295
  1 H      0.7745     1.0000     0.2255     1.0188     0.9837     0.0352

  Mayer bond orders larger than 0.100000
B(  0-O ,  1-H ) :   0.9837 


-------
TIMINGS
-------

Total time                :    1.238 sec
Integral trafo            :    0.130 sec ( 10.5%)
FC preparation            :    0.035 sec (  2.8%)
I/O of integrals          :    0.012 sec (  1.0%)
V**(-1/2)                 :    0.004 sec (  0.3%)
Gamma-Trafo               :    0.003 sec (  0.2%)
L(virtual)                :    0.003 sec (  0.3%)
XC kernel                 :    0.007 sec (  0.5%)
G(D)                      :    0.086 sec (  7.0%)
G(Z)                      :    0.084 sec (  6.8%)
Z-vector solution         :    0.386 sec ( 31.2%)
3-index derivative        :    0.004 sec (  0.3%)
2-index derivative        :    0.036 sec (  2.9%)
Fock matrix gradient      :    0.303 sec ( 24.5%)


---------------------------------------
MP2 TOTAL ENERGY:      -75.651954781 Eh
---------------------------------------

The final MP2 gradient
  0:  -0.00000023  -0.00000013  -0.00107072
  1:  -0.00000001  -0.00000004   0.00107109

-----------------------------------
NORM OF THE MP2 GRADIENT:  0.001514
-----------------------------------

Maximum memory used throughout the entire MP2-calculation: 25.7 MB


-------------------------------------------------------------------------------
                          DFT DISPERSION CORRECTION                            
                                                                               
                                DFTD4 V3.4.0                                   
-------------------------------------------------------------------------------
The REV-DSD-PBEP86-2021 functional is recognized
A user input s6-coefficient scaling factor has been recognized
A user input a1-coefficient scaling factor has been recognized
A user input s8-coefficient scaling factor has been recognized
A user input a2-coefficient scaling factor has been recognized
A user input s9-coefficient scaling factor has been recognized
Active option DFTDOPT                   ...         5   

-------------------------   ----------------
Dispersion correction           -0.000060540
-------------------------   ----------------


-------------------------   --------------------
FINAL SINGLE POINT ENERGY       -75.652015321123
-------------------------   --------------------

------------------------------------------------------------------------------
                         ORCA GEOMETRY RELAXATION STEP
------------------------------------------------------------------------------

Reading the OPT-File                    .... done
Getting information on internals        .... done
Copying old internal coords+grads       .... done
Making the new internal coordinates     .... (2022 redundants) done
Validating the new internal coordinates .... (2022 redundants) done
Calculating the B-matrix                .... done
Calculating the G,G- and P matrices     .... done
Transforming gradient to internals      .... done
Projecting the internal gradient        .... done
Number of atoms                         ....   2
Number of internal coordinates          ....   1
Current Energy                          ....   -75.652015321 Eh
Current gradient norm                   ....     0.001514489 Eh/bohr
Maximum allowed component of the step   ....  0.300
Current trust radius                    ....  0.300
Evaluating the initial hessian          ....  (Almloef) done
Projecting the Hessian                  .... done
Forming the augmented Hessian           .... done
Diagonalizing the augmented Hessian     .... done
Last element of RFO vector              ....  0.999997699
Lowest eigenvalues of augmented Hessian:
 -0.000002298
Length of the computed step             ....  0.002145445
The final length of the internal step   ....  0.002145445
Converting the step to Cartesian space:
 Initial RMS(Int)=    0.0021454446
Transforming coordinates:
 Iter   0:  RMS(Cart)=    0.0006193365 RMS(Int)=    0.0021454446
done
Storing new coordinates                 .... done

                                .--------------------.
          ----------------------|Geometry convergence|-------------------------
          Item                value                   Tolerance       Converged
          ---------------------------------------------------------------------
          RMS gradient        0.0010709056            0.0001000000      NO
          MAX gradient        0.0010709056            0.0003000000      NO
          RMS step            0.0021454446            0.0020000000      NO
          MAX step            0.0021454446            0.0040000000      YES
          -------------------------------------------------------------------------
          ........................................................
          Max(Bonds)      0.0011      Max(Angles)    0.00
          Max(Dihed)        0.00      Max(Improp)    0.00
          ---------------------------------------------------------------------

The optimization has not yet converged - more geometry cycles are needed


    ---------------------------------------------------------------------------
                         Redundant Internal Coordinates
                            (Angstroem and degrees)

        Definition                    Value    dE/dq     Step     New-Value
    ----------------------------------------------------------------------------
     1. B(H   1,O   0)                0.9711  0.001071 -0.0011    0.9700   
    ----------------------------------------------------------------------------

Geometry step timings:
Preparation and reading OPT file:      0.000 s ( 4.365 %)
Internal coordinates            :      0.000 s ( 5.006 %)
B/P matrices and projection     :      0.000 s (11.425 %)
Hessian update/contruction      :      0.000 s (36.072 %)
Making the step                 :      0.000 s (12.323 %)
Converting the step to Cartesian:      0.000 s ( 5.392 %)
Storing new data                :      0.000 s ( 5.263 %)
Checking convergence            :      0.000 s ( 7.574 %)
Final printing                  :      0.000 s (11.553 %)
Total time                      :      0.001 s

Time for energy+gradient        :      9.018 s
Time for complete geometry iter :     10.585 s

         *************************************************************
         *                GEOMETRY OPTIMIZATION CYCLE   2            *
         *************************************************************
---------------------------------
CARTESIAN COORDINATES (ANGSTROEM)
---------------------------------
  O      0.000000    0.000000    0.000568
  H      0.000000    0.000000    0.970548

----------------------------
CARTESIAN COORDINATES (A.U.)
----------------------------
  NO LB      ZA    FRAG     MASS         X           Y           Z
   0 O     8.0000    0    15.999    0.000000    0.000000    0.001073
   1 H     1.0000    0     1.008    0.000000    0.000000    1.834071

--------------------------------
INTERNAL COORDINATES (ANGSTROEM)
--------------------------------
 O      0   0   0     0.000000000000     0.00000000     0.00000000
 H      1   0   0     0.969980679626     0.00000000     0.00000000

---------------------------
INTERNAL COORDINATES (A.U.)
---------------------------
 O      0   0   0     0.000000000000     0.00000000     0.00000000
 H      1   0   0     1.832997839688     0.00000000     0.00000000



           ************************************************************
           *        Program running with 8 parallel MPI-processes     *
           *              working on a common directory               *
           ************************************************************
------------------------------------------------------------------------------
                   ___                                                        
                  /   \      - P O W E R E D   B Y -                         
                 /     \                                                     
                 |  |  |   _    _      __       _____    __    __             
                 |  |  |  | |  | |    /  \     |  _  \  |  |  /  |          
                  \  \/   | |  | |   /    \    | | | |  |  | /  /          
                 / \  \   | |__| |  /  /\  \   | |_| |  |  |/  /          
                |  |  |   |  __  | /  /__\  \  |    /   |      \           
                |  |  |   | |  | | |   __   |  |    \   |  |\   \          
                \     /   | |  | | |  |  |  |  | |\  \  |  | \   \       
                 \___/    |_|  |_| |__|  |__|  |_| \__\ |__|  \__/        
                                                                              
                      - O R C A' S   B I G   F R I E N D -                    
                                      &                                       
                       - I N T E G R A L  F E E D E R -                       
                                                                              
 v1 FN, 2020, v2 2021, v3 2022-2024                                           
------------------------------------------------------------------------------


----------------------
SHARK INTEGRAL PACKAGE
----------------------

Number of atoms                             ...      2
Number of basis functions                   ...     45
Number of shells                            ...     17
Maximum angular momentum                    ...      3
Integral batch strategy                     ... SHARK/LIBINT Hybrid
RI-J (if used) integral strategy            ... SPLIT-RIJ (Revised 2003 algorithm where possible)
Printlevel                                  ...      1
Contraction scheme used                     ... SEGMENTED contraction
Prescreening option                         ... SCHWARTZ
   Thresh                                   ... 2.500e-11
   Tcut                                     ... 2.500e-12
   Tpresel                                  ... 2.500e-12 
Coulomb Range Separation                    ... NOT USED
Exchange Range Separation                   ... NOT USED
Multipole approximations                    ... NOT USED
Finite Nucleus Model                        ... NOT USED
CABS basis                                  ... NOT available
Auxiliary Coulomb fitting basis             ... AVAILABLE
   # of basis functions in Aux-J            ...     60
   # of shells in Aux-J                     ...     20
   Maximum angular momentum in Aux-J        ...      4
Auxiliary J/K fitting basis                 ... NOT available
Auxiliary Correlation fitting basis         ... AVAILABLE
   # of basis functions in Aux-C            ...    106
   # of shells in Aux-C                     ...     32
   Maximum angular momentum in Aux-C        ...      4
Auxiliary 'external' fitting basis          ... NOT available

Checking pre-screening integrals            ... done (  0.0 sec) Dimension = 17
   => SHARK Basis and OBASIS are compatible. Storing Pre-screening
Shell pair information
Shell pair cut-off parameter TPreSel        ...   2.5e-12
Total number of shell pairs                 ...       153
Shell pairs after pre-screening             ...       153
Total number of primitive shell pairs       ...       431
Primitive shell pairs kept                  ...       422
          la=0 lb=0:     36 shell pairs
          la=1 lb=0:     40 shell pairs
          la=1 lb=1:     15 shell pairs
          la=2 lb=0:     24 shell pairs
          la=2 lb=1:     15 shell pairs
          la=2 lb=2:      6 shell pairs
          la=3 lb=0:      8 shell pairs
          la=3 lb=1:      5 shell pairs
          la=3 lb=2:      3 shell pairs
          la=3 lb=3:      1 shell pairs

Checking whether 4 symmetric matrices of dimension 45 fit in memory
:Max Core in MB      =  10000.00
 MB in use           =      3.38
 MB left             =   9996.62
 MB needed           =      0.03
 Data fit in memory  = YES
Calculating RI/J V-Matrix + Cholesky decomp.... done (  0.0 sec)
Calculating RI/C V-Matrix + Cholesky decomp.... done (  0.0 sec)
Calculating Nuclear repulsion               ... done (  0.0 sec) ENN=      4.364435040120 Eh

Diagonalization of the overlap matrix:
Smallest eigenvalue                        ... 3.305e-03
Time for diagonalization                   ...    0.000 sec
[...]
                    * MULLIKEN POPULATION ANALYSIS *
                    ********************************

------------------------------------------
MULLIKEN ATOMIC CHARGES AND SPIN DENSITIES
------------------------------------------
   0 O :   -0.225028    1.019231
   1 H :    0.225028   -0.019231
Sum of atomic charges       :   -0.0000000
Sum of atomic spin densities:    1.0000000

---------------------------------------------------
MULLIKEN REDUCED ORBITAL CHARGES AND SPIN DENSITIES
---------------------------------------------------
CHARGE
  0 O s       :     3.898150  s :     3.898150
      pz      :     1.370679  p :     4.303338
      px      :     1.468209
      py      :     1.464450
      dz2     :     0.010241  d :     0.021977
      dxz     :     0.003317
      dyz     :     0.003313
      dx2y2   :     0.002398
      dxy     :     0.002707
      f0      :     0.000387  f :     0.001562
      f+1     :     0.000198
      f-1     :     0.000198
      f+2     :     0.000176
      f-2     :     0.000190
      f+3     :     0.000206
      f-3     :     0.000206
  1 H s       :     0.683850  s :     0.683850
      pz      :     0.026812  p :     0.082907
      px      :     0.028097
      py      :     0.027998
      dz2     :     0.003198  d :     0.008215
      dxz     :     0.002450
      dyz     :     0.002441
      dx2y2   :     0.000062
      dxy     :     0.000065

SPIN
  0 O s       :     0.020728  s :     0.020728
      pz      :     0.014679  p :     0.995675
      px      :     0.488600
      py      :     0.492396
      dz2     :    -0.000162  d :     0.002818
      dxz     :     0.000692
      dyz     :     0.000699
      dx2y2   :     0.000800
      dxy     :     0.000790
      f0      :    -0.000232  f :     0.000010
      f+1     :    -0.000003
      f-1     :    -0.000003
      f+2     :     0.000032
      f-2     :     0.000047
      f+3     :     0.000085
      f-3     :     0.000085
  1 H s       :    -0.030591  s :    -0.030591
      pz      :    -0.002087  p :     0.010165
      px      :     0.006092
      py      :     0.006160
      dz2     :     0.000006  d :     0.001194
      dxz     :     0.000581
      dyz     :     0.000587
      dx2y2   :     0.000010
      dxy     :     0.000011


                     *******************************
                     * LOEWDIN POPULATION ANALYSIS *
                     *******************************

-----------------------------------------
LOEWDIN ATOMIC CHARGES AND SPIN DENSITIES
-----------------------------------------
   0 O :    0.165018    0.946838
   1 H :   -0.165018    0.053162

--------------------------------------------------
LOEWDIN REDUCED ORBITAL CHARGES AND SPIN DENSITIES
--------------------------------------------------
CHARGE
  0 O s       :     3.549518  s :     3.549518
      pz      :     1.483801  p :     4.252843
      px      :     1.386294
      py      :     1.382748
      dz2     :     0.020073  d :     0.029798
      dxz     :     0.002333
      dyz     :     0.002331
      dx2y2   :     0.002378
      dxy     :     0.002683
      f0      :     0.001109  f :     0.002823
      f+1     :     0.000470
      f-1     :     0.000470
      f+2     :     0.000175
      f-2     :     0.000188
      f+3     :     0.000206
      f-3     :     0.000206
  1 H s       :     0.716220  s :     0.716220
      pz      :     0.188639  p :     0.356234
      px      :     0.083923
      py      :     0.083672
      dz2     :     0.033958  d :     0.092564
      dxz     :     0.029251
      dyz     :     0.029181
      dx2y2   :     0.000085
      dxy     :     0.000090

SPIN
  0 O s       :     0.009420  s :     0.009420
      pz      :     0.008306  p :     0.935112
      px      :     0.461610
      py      :     0.465195
      dz2     :    -0.000283  d :     0.001914
      dxz     :     0.000308
      dyz     :     0.000313
      dx2y2   :     0.000793
      dxy     :     0.000783
      f0      :    -0.000229  f :     0.000393
      f+1     :     0.000187
      f-1     :     0.000188
      f+2     :     0.000032
      f-2     :     0.000046
      f+3     :     0.000085
      f-3     :     0.000085
  1 H s       :    -0.020251  s :    -0.020251
      pz      :     0.003934  p :     0.051435
      px      :     0.023645
      py      :     0.023856
      dz2     :     0.001444  d :     0.021978
      dxz     :     0.010212
      dyz     :     0.010287
      dx2y2   :     0.000017
      dxy     :     0.000018


                      *****************************
                      * MAYER POPULATION ANALYSIS *
                      *****************************

  NA   - Mulliken gross atomic population
  ZA   - Total nuclear charge
  QA   - Mulliken gross atomic charge
  VA   - Mayer's total valence
  BVA  - Mayer's bonded valence
  FA   - Mayer's free valence

  ATOM       NA         ZA         QA         VA         BVA        FA
  0 O      8.2250     8.0000    -0.2250     2.1135     0.9842     1.1293
  1 H      0.7750     1.0000     0.2250     1.0193     0.9842     0.0351

  Mayer bond orders larger than 0.100000
B(  0-O ,  1-H ) :   0.9842 


-------
TIMINGS
-------

Total time                :    1.196 sec
Integral trafo            :    0.113 sec (  9.4%)
FC preparation            :    0.012 sec (  1.0%)
I/O of integrals          :    0.010 sec (  0.8%)
V**(-1/2)                 :    0.003 sec (  0.3%)
Gamma-Trafo               :    0.003 sec (  0.2%)
L(virtual)                :    0.003 sec (  0.3%)
XC kernel                 :    0.007 sec (  0.6%)
G(D)                      :    0.085 sec (  7.1%)
G(Z)                      :    0.083 sec (  6.9%)
Z-vector solution         :    0.380 sec ( 31.8%)
3-index derivative        :    0.004 sec (  0.3%)
2-index derivative        :    0.036 sec (  3.0%)
Fock matrix gradient      :    0.311 sec ( 26.0%)


---------------------------------------
MP2 TOTAL ENERGY:      -75.651955791 Eh
---------------------------------------

The final MP2 gradient
  0:   0.00000042  -0.00000033   0.00000152
  1:  -0.00000010  -0.00000003  -0.00000037

-----------------------------------
NORM OF THE MP2 GRADIENT:  0.000002
-----------------------------------

Maximum memory used throughout the entire MP2-calculation: 25.8 MB


-------------------------------------------------------------------------------
                          DFT DISPERSION CORRECTION                            
                                                                               
                                DFTD4 V3.4.0                                   
-------------------------------------------------------------------------------
The REV-DSD-PBEP86-2021 functional is recognized
A user input s6-coefficient scaling factor has been recognized
A user input a1-coefficient scaling factor has been recognized
A user input s8-coefficient scaling factor has been recognized
A user input a2-coefficient scaling factor has been recognized
A user input s9-coefficient scaling factor has been recognized
Active option DFTDOPT                   ...         5   

-------------------------   ----------------
Dispersion correction           -0.000060502
-------------------------   ----------------


-------------------------   --------------------
FINAL SINGLE POINT ENERGY       -75.652016292465
-------------------------   --------------------

                                *** OPTIMIZATION RUN DONE ***



           ************************************************************
           *        Program running with 8 parallel MPI-processes     *
           *              working on a common directory               *
           ************************************************************

------------------------------------------------------------------------------
                              ORCA PROPERTY CALCULATIONS
------------------------------------------------------------------------------

GBWName                                 ... opt.gbw
Number of atoms                         ...      2
Number of basis functions               ...     45
Max core memory                         ...  10000 MB

Electric properties:
Dipole moment                           ... YES
Quadrupole moment                       ...  NO
Static polarizability (Dipole/Dipole)   ...  NO
Static polarizability (Dipole/Quad.)    ...  NO
Static polarizability (Quad./Quad.)     ...  NO
Static polarizability (Velocity)        ...  NO
Static hyperpolarizability              ...  NO

Atomic electric properties:
Dipole moment                           ...  NO
Quadrupole moment                       ...  NO
Static polarizability                   ...  NO

Choice of electric origin               ... Center of mass
Position of electric origin             ...     0.000000     0.000000     0.109701

General magnetic properties:
Magnetizability                         ...  NO

EPR properties:
g-Tensor (aka g-matrix)                 ...  NO
Zero-Field splitting spin-orbit         ...  NO
Zero-field splitting spin-spin          ...  NO
Hyperfine couplings                     ...  NO (   0 nuclei)
Quadrupole couplings                    ...  NO (   0 nuclei)
Contact density                         ...  NO (   0 nuclei)

NMR properties:
Chemical shifts                         ...  NO (   0 nuclei)
Spin-rotation constants                 ...  NO (   0 nuclei)
Spin-spin couplings                     ...  NO (   0 nuclei,    0 pairs)

Choice of magnetic origin               ... GIAO
Position of magnetic origin             ...     0.000000     0.000000     0.000000

Properties with geometric perturbations:
SCF Hessian                             ...  NO
IR spectrum                             ...  NO
VCD spectrum                            ...  NO
X-ray spectroscopy properties:
SCF XES/XAS/RIXS spectra                ...  NO

SCF SOC stabilization energy            ...  NO
Diagonal Born-Oppenheimer correction    ...  NO

-------------
DIPOLE MOMENT
-------------

Method             : SCF
Type of density    : Electron Density
Multiplicity       :   2
Irrep              :   0
Energy             :   -75.5489140184932779 Eh
Basis              : AO
                                X                 Y                 Z
Electronic contribution:     -0.000000002       0.000000000      -0.159357881
Nuclear contribution   :      0.000000000       0.000000000       0.855240363
                        -----------------------------------------
Total Dipole Moment    :     -0.000000002       0.000000000       0.695882482
                        -----------------------------------------
Magnitude (a.u.)       :      0.695882482
Magnitude (Debye)      :      1.768792700



--------------------
Rotational spectrum 
--------------------
 
Rotational constants in cm-1:             0.000000            18.894294            18.894294 
Rotational constants in MHz :             0.000000        566436.677021        566436.677021 

Dipole components along the rotational axes: 
x,y,z [a.u.] :     0.695882     0.000000    -0.000000 
x,y,z [Debye]:     1.768793     0.000000    -0.000000 

 

-------------
DIPOLE MOMENT
-------------

Method             : MP2
Type of density    : Electron Density
Multiplicity       :   2
Level              : Unrelaxed density
Irrep              :   0
Energy             :     0.0000000000000000 Eh
Basis              : AO
                                X                 Y                 Z
Electronic contribution:     -0.000000002       0.000000000      -0.167148684
Nuclear contribution   :      0.000000000       0.000000000       0.855240363
                        -----------------------------------------
Total Dipole Moment    :     -0.000000002       0.000000000       0.688091678
                        -----------------------------------------
Magnitude (a.u.)       :      0.688091678
Magnitude (Debye)      :      1.748990052



--------------------
Rotational spectrum 
--------------------
 
Rotational constants in cm-1:             0.000000            18.894294            18.894294 
Rotational constants in MHz :             0.000000        566436.677021        566436.677021 

Dipole components along the rotational axes: 
x,y,z [a.u.] :     0.688092     0.000000    -0.000000 
x,y,z [Debye]:     1.748990     0.000000    -0.000000 

 

-------------
DIPOLE MOMENT
-------------

Method             : MP2
Type of density    : Electron Density
Multiplicity       :   2
Level              : Relaxed density
Irrep              :   0
Energy             :     0.0000000000000000 Eh
Basis              : AO
                                X                 Y                 Z
Electronic contribution:     -0.000000002       0.000000000      -0.183009298
Nuclear contribution   :      0.000000000       0.000000000       0.855240363
                        -----------------------------------------
Total Dipole Moment    :     -0.000000002       0.000000000       0.672231064
                        -----------------------------------------
Magnitude (a.u.)       :      0.672231064
Magnitude (Debye)      :      1.708675575



--------------------
Rotational spectrum 
--------------------
 
Rotational constants in cm-1:             0.000000            18.894294            18.894294 
Rotational constants in MHz :             0.000000        566436.677021        566436.677021 

Dipole components along the rotational axes: 
x,y,z [a.u.] :     0.672231     0.000000    -0.000000 
x,y,z [Debye]:     1.708676     0.000000    -0.000000 

 

Dipole moment calculation done in   0.0 sec 

Maximum memory used throughout the entire PROP-calculation: 3.7 MB

--------------------------------
SUGGESTED CITATIONS FOR THIS RUN
--------------------------------

Below you find a list of papers that are relevant to this ORCA run
We neither can nor want to force you to cite these papers, but we appreciate if you do
You receive ORCA, which is the product of decades of hard work by many enthusiastic individuals, for free
The only thing we kindly ask in return is that you cite our papers,
We deeply appreciate it, if you show your appreciation for ORCA by not just citing the generic ORCA reference.

Please note that relegating all ORCA citations to the supporting information does *not* help us.
SI sections are not indexed - citations you put there will not count into any citation statistics
But we need these citations in order to attract the funding resources that allow us to do what we are doing

Therefore, if you are a happy ORCA user, please consider citing a few of the papers listed below in the main body of your paper

In addition to the list printed below, the program has created the file opt.bibtex that contains the list in bibtex format
You can import this file easily into all common literature databanks and citation aid programs


List of essential papers. We consider these as the minimum necessary citations

  1. Neese, F.
     Software update: the ORCA program system, version 6.0
     WIRES Comput. Molec. Sci. 2025 15(1), e70019
     doi.org/10.1002/wcms.7019

List of papers to cite with high priority. The work reported in these papers was absolutely
necessary for this run to complete.
Our perspective: the developers of density functionals and basis sets usually get cited in chemistry papers
Good! But without the algorithms to do something with them, the functionals or basis sets would not do anything.
Hence, in our opinion, the algorithm design and method developments papers are equally worthy of getting cited

  1. Neese, F.
     An improvement of the resolution of the identity approximation for the formation of the Coulomb matrix
     J. Comp. Chem. 2003 24(14), 1740-1747
     doi.org/10.1002/jcc.10318
  2. Neese, F.; Schwabe, T.; Grimme, S.
     Analytic derivatives for perturbatively corrected 'double hybrid' density functionals: Theory, implementation, and applications
     J. Chem. Phys. 2007 126(12), Art. No. 124115
     doi.org/10.1063/1.2712433
  3. Neese, F.; Wennmohs, F.; Hansen, A.; Becker, U.
     Efficient, approximate and parallel Hartree-Fock and hybrid DFT calculations. A 'chain-of-spheres' algorithm for the Hartree-Fock exchange
     Chem. Phys. 2009 356(1-3), 98-109
     doi.org/10.1016/j.chemphys.2008.10.036
  4. Kossmann, S.; Neese, F.
     Efficient Structure Optimization with Second-Order Many-Body Perturbation Theory: The RIJCOSX-MP2 Method
     J. Theo. Comp. Chem. 2010 6 , 2325-2338
     doi.org/10.1021/ct100199k
  5. Caldeweyher, E.; Bannwarth, C.; Grimme, S.
     Extension of the D3 dispersion coefficient model
     J. Chem. Phys. 2017 147 , 034112
     doi.org/10.1063/1.4993215
  6. Caldeweyher, E.; Ehlert, S.; Hansen, A.; Neugebauer, H.; Spicher, S.; Bannwarth, C.; Grimme, S.
     A generally applicable atomic-charge dependent London dispersion correction
     J. Chem. Phys. 2019 150 , 154122
     doi.org/10.1063/1.5090222
  7. Caldeweyher, E.; Mewes, J.; Ehlert, S.; Grimme, S.
     Extension and evaluation of the D4 London-dispersion model for periodic systems
     Phys. Chem. Chem. Phys. 2020 22(16), 8499-8512
     doi.org/10.1039/D0CP00502A
  8. Helmich-Paris, B.; de Souza, B.; Neese, F.; Izsák, R.
     An improved chain of spheres for exchange algorithm
     J. Chem. Phys. 2021 155(10), 104109
     doi.org/10.1063/5.0058766
  9. Neese, F.
     The SHARK Integral Generation and Digestion System
     J. Comp. Chem. 2022 44(3), 381
     doi.org/10.1002/jcc.26942
 10. Wittmann, L.; Gordiy, I.; Friede, M.; Helmich-Paris, B.; Grimme, S.; Hansen, A.; Bursch, M.
     Extension of the D3 and D4 London Dispersion Corrections to the full Actinides Series
     Phys. Chem. Chem. Phys. 2024 26(32), 21379-21394
     doi.org/10.1039/D4CP01514B

List of suggested additional citations. These are papers that are important in the 'surrounding' of 
of this run, or papers that preceded the highly important papers. If you like your results we are grateful for a citation.

  1. Izsak, R.; Neese, F.
     An overlap fitted chain of spheres exchange method
     J. Chem. Phys. 2011 135 , 144105
     doi.org/10.1063/1.3646921
  2. Izsak, R.; Hansen, A.; Neese, F.
     The resolution of identity and chain of spheres approximations for the LPNO-CCSD singles Fock term
     Molec. Phys. 2012 110 , 2413-2417
     doi.org/10.1080/00268976.2012.687466
  3. Neese, F.
     The ORCA program system
     WIRES Comput. Molec. Sci. 2012 2(1), 73-78
     doi.org/10.1002/wcms.81
  4. Izsak, R.; Neese, F.; Klopper, W.
     Robust fitting techniques in the chain of spheres approximation to the Fock exchange: The role of the complementary space
     J. Chem. Phys. 2013 139 , 
     doi.org/10.1063/1.4819264
  5. Neese, F.
     Software update: the ORCA program system, version 4.0
     WIRES Comput. Molec. Sci. 2018 8(1), 1-6
     doi.org/10.1002/wcms.1327
  6. Neese, F.; Wennmohs, F.; Becker, U.; Riplinger, C.
     The ORCA quantum chemistry program package
     J. Chem. Phys. 2020 152(22), 224108
     doi.org/10.1063/5.0004608
  7. Neese, F.
     Software update: The ORCA program system—Version 5.0
     WIRES Comput. Molec. Sci. 2022 12(1), e1606
     doi.org/10.1002/wcms.1606

List of optional additional citations

  1. Neese, F.
     Approximate second-order SCF convergence for spin unrestricted wavefunctions
     Chem. Phys. Lett. 2000 325(1-3), 93-98
     doi.org/10.1016/s0009-2614(00)00662-x

Timings for individual modules:

Sum of individual times          ...       26.873 sec (=   0.448 min)
Startup calculation              ...        5.043 sec (=   0.084 min)  18.8 %
SCF iterations                   ...       11.850 sec (=   0.197 min)  44.1 %
Property calculations            ...        1.592 sec (=   0.027 min)   5.9 %
MP2 module                       ...        8.382 sec (=   0.140 min)  31.2 %
Geometry relaxation              ...        0.006 sec (=   0.000 min)   0.0 %
                             ****ORCA TERMINATED NORMALLY****
TOTAL RUN TIME: 0 days 0 hours 0 minutes 31 seconds 757 msec
