
                                 *****************
                                 * O   R   C   A *
                                 *****************

                                            #,                                       
                                            ###                                      
                                            ####                                     
                                            #####                                    
                                            ######                                   
                                           ########,                                 
                                     ,,################,,,,,                         
                               ,,#################################,,                 
                          ,,##########################################,,             
                       ,#########################################, ''#####,          
                    ,#############################################,,   '####,        
                  ,##################################################,,,,####,       
                ,###########''''           ''''###############################       
              ,#####''   ,,,,##########,,,,          '''####'''          '####       
            ,##' ,,,,###########################,,,                        '##       
           ' ,,###''''                  '''############,,,                           
         ,,##''                                '''############,,,,        ,,,,,,###''
      ,#''                                            '''#######################'''  
     '                                                          ''''####''''         
             ,#######,   #######,   ,#######,      ##                                
            ,#'     '#,  ##    ##  ,#'     '#,    #''#        ,####,    ,#,          
            ##       ##  ##   ,#'  ##            #'  '#       #'       ,# #          
            ##       ##  #######   ##           ,######,      #####,      #          
            '#,     ,#'  ##    ##  '#,     ,#' ,#      #,     #,   #      #          
             '#######'   ##     ##  '#######'  #'      '#     '####' #    #          



                #########################################################
                #                        -***-                          #
                #          Department of theory and spectroscopy        #
                #                                                       #
                #                      Frank Neese                      #
                #                                                       #
                #     Directorship, Architecture, Infrastructure        #
                #                    SHARK, DRIVERS                     #
                #        Core code/Algorithms in most modules           #
                #                                                       #
                #        Max Planck Institute fuer Kohlenforschung      #
                #                Kaiser Wilhelm Platz 1                 #
                #                 D-45470 Muelheim/Ruhr                 #
                #                      Germany                          #
                #                                                       #
                #                  All rights reserved                  #
                #                        -***-                          #
                #########################################################


                         Program Version 6.1.0  -  RELEASE   -
                                (GIT: $679e74b$)
                          ($2025-06-10 18:02:51 +0200$)


 With contributions from (in alphabetic order):
[Max-Planck-Institut fuer Kohlenforschung]                               
  Daniel Aravena         : Magnetic Suceptibility                        
  Michael Atanasov       : Ab Initio Ligand Field Theory (pilot matlab implementation)
  Alexander A. Auer      : GIAO ZORA, VPT2 properties, NMR spectrum      
  Ute Becker             : All parallelization in ORCA, NUMFREQ, NUMCALC 
  Giovanni Bistoni       : ED, misc. LED, open-shell LED, HFLD           
  Dmytro Bykov           : pre 5.0 version of the SCF Hessian            
  Marcos Casanova-Páez   : Triplet and SCS-CIS(D). UHF-(DLPNO)-IP/EA/STEOM-CCSD. UHF-CVS-IP/STEOM-CCSD   
  Vijay G. Chilkuri      : MRCI spin determinant printing, contributions to CSF-ICE 
  Pauline Colinet        : FMM embedding                                 
  Dipayan Datta          : RHF DLPNO-CCSD density                        
  Achintya Kumar Dutta   : EOM-CC, STEOM-CC                              
  Nicolas Foglia         : Exact transition moments, OPA infrastructure, MCD improvements    
  Dmitry Ganyushin       : Spin-Orbit,Spin-Spin,Magnetic field MRCI      
  Miquel Garcia-Rates    : C-PCM and meta-GGA Hessian, CCSD/C-PCM, Gaussian charge scheme 
  Tiago L. C. Gouveia    : GS-ROHF, GS-ROCIS                             
  Yang Guo               : DLPNO-NEVPT2, F12-NEVPT2, CIM, IAO-localization        
  Andreas Hansen         : Spin unrestricted coupled pair/coupled cluster methods 
  Ingolf Harden          : AUTO-CI MPn and infrastructure                
  Benjamin Helmich-Paris : MC-RPA, TRAH-(SCF,CASSCF), AVAS, COSX integrals, SCF dyn. polar., MC-PDFT, srDFT 
  Lee Huntington         : MR-EOM, pCC                                   
  Robert Izsak           : Overlap fitted RIJCOSX, COSX-SCS-MP3, EOM     
  Riya Kayal             : Wick's Theorem for AUTO-CI, AUTO-CI UHF-CCSDT 
  Emily Kempfer          : AUTO-CI RHF CISDT and CCSDT, approximate NEVPT4
  Christian Kollmar      : KDIIS, OOCD, Brueckner-CCSD(T), CCSD density, CASPT2, CASPT2-K, improved NEVPT2 
  Axel Koslowski         : Symmetry handling                             
  Simone Kossmann        : meta-GGA functionals, TD-DFT gradient, OOMP2, (MP2 Hessian; deprecated post 5.0) 
  Lucas Lang             : DCDCAS, Hyperfine gauge corrections, ICE-SOC+SSC
  Marvin Lechner         : AUTO-CI (C++ implementation), FIC-MRCC        
  Spencer Leger          : CASSCF response                               
  Dagmar Lenk            : GEPOL surface, SMD, ORCA-2-JSON               
  Dimitrios Liakos       : Extrapolation schemes; Compound Job, Property file
  Dimitrios Manganas     : Further ROCIS development; embedding schemes. LFT, Crystal Embedding 
  Dimitrios Pantazis     : SARC Basis sets                               
  Anastasios Papadopoulos: AUTO-CI, single reference methods and gradients 
  Taras Petrenko         : pre 6.0 DFT Hessian and TD-DFT gradient,  ECA, NRVS 
  Petra Pikulova         : Analytic Raman intensities                    
  Peter Pinski           : DLPNO-MP2, DLPNO-MP2 Gradient                 
  Shashank Vittal Rao    : ES-AILFT, MagRelax                            
  Christoph Reimann      : Effective Core Potentials                     
  Marius Retegan         : Local ZFS, SOC                                
  Christoph Riplinger    : Optimizer, TS searches, QM/MM, DLPNO-CCSD(T), (RO)-DLPNO pert. Triples 
  Michael Roemelt        : Original ROCIS implementation, recursive CI coupling coefficients
  Masaaki Saitow         : Open-shell DLPNO-CCSD energy and density      
  Barbara Sandhoefer     : DKH picture change effects                    
  Yorick L. A. Schmerwitz: GMF and freeze-and-release deltaSCF, NEB S-IDPP initial path                    
  Kantharuban Sivalingam : CASSCF convergence/infrastructure, NEVPT2, NEVPT3, NEVPT4(SD), FIC-MRCI and CEPA variants
  Bernardo de Souza      : ESD, SOC TD-DFT                               
  Georgi L. Stoychev     : AutoAux, RI-MP2 NMR, DLPNO-MP2 response, X2C  
  Van Anh Tran           : RI-MP2 g-tensors                              
  Willem Van den Heuvel  : Paramagnetic NMR                              
  Zikuan Wang            : NOTCH, Electric field optimization            
  Frank Wennmohs         : Technical directorship and infrastructure     
  Hang Xu                : AUTO-CI-Response properties                   
                                                                         
[FACCTs GmbH]                                                            
  Markus Bursch, Nicolas Foglia, Miquel Garcia-Rates, Ingolf Harden, Hagen Neugebauer, Anastasios Papadopoulos, 
  Christoph Riplinger, Bernardo de Souza, Georgi L. Stoychev                                                    
                                                                 
  APM, various basis sets, CI-OPT, improved COSX, DLPNO-Multilevel,           
  DOCKER, DRACO, updates on ESD, Fragmentator, GOAT, IRC, LR-CPCM, L-BFGS, MBIS, meta-GGA TD-DFT gradient, ML-optimized integration grids, 
  MM, NACMEs, nearIR, NEB, NEB-TS, NL-DFT gradient (VV10), 2- and 3-layer-ONIOM, interface openCOSMO-RS, QMMM,   
  Crystal-QMMM, RESP, rigid body optimization, SF, symmetry and pop. for TD-DFT, various functionals, SOLVATOR                                   
                                                                         
[Other institutions]                                                     
  V. Asgeirsson          : NEB                                           
  Christoph Bannwarth    : sTDA-DFT, sTD-DFT, PBEh-3c, B97-3c, D3        
  Giovanni Bistoni       : ETS/NOCV, ADLD/ADEX, COVALED                  
  Martin Brehm           : Molecular dynamics                            
  Ronald Cardenas        : ETS/NOCV                                      
  Martina Colucci        : COVALED                                       
  Sebastian Ehlert       : rSCAN, r2SCAN, r2SCAN-3c, D4, dhf basis sets  
  Marvin Friede          : D4 for Fr, Ra, Ac-Lr                          
  Lars Goerigk           : TD-DFT with DH, B97 family of functionals     
  Stefan Grimme          : VdW corrections, initial TS optimization, DFT functionals, gCP, sTDA/sTD-DF 
  Waldemar Hujo          : DFT-NL                                        
  H. Jonsson             : NEB                                           
  Holger Kruse           : gCP                                           
  Marcel Mueller         : wB97X-3c, vDZP basis set                      
  Hagen Neugebauer       : wr2SCAN, Native XTB                           
  Gianluca Regni         : ADLD/ADEX                                     
  Tobias Risthaus        : pre 6.0 range-separated hybrid DFT and stability analysis
  Lukas Wittmann         : regularized MP2, r2SCAN double-hybrids, wr2SCAN        
                                                                         
We gratefully acknowledge several colleagues who have allowed us to      
interface, adapt or use parts of their codes:                            
  Ed Valeev, F. Pavosevic, A. Kumar             : LibInt (2-el integral package), F12 methods 
  Garnet Chan, S. Sharma, J. Yang, R. Olivares  : DMRG                   
  Ulf Ekstrom                                   : XCFun DFT Library      
  Mihaly Kallay                                 : mrcc  (arbitrary order and MRCC methods)
  Frank Weinhold                                : gennbo (NPA and NBO analysis)           
  Simon Mueller                                 : openCOSMO-RS                            
  Christopher J. Cramer and Donald G. Truhlar   : smd solvation model                     
  S Lehtola, MJT Oliveira, MAL Marques          : LibXC Library                           
  Liviu Ungur et al                             : ANISO software                          


 Your calculation uses the libint2 library for the computation of 2-el integrals
 For citations please refer to: http://libint.valeyev.net

 Your ORCA version has been built with support for libXC version: 7.0.0
 For citations please refer to: https://libxc.gitlab.io

 This ORCA versions uses:
   CBLAS   interface :  Fast vector & matrix operations
   LAPACKE interface :  Fast linear algebra routines
   SCALAPACK package :  Parallel linear algebra routines
   Shared memory     :  Shared parallel matrices
   BLAS/LAPACK       :  OpenBLAS 0.3.29  USE64BITINT DYNAMIC_ARCH NO_AFFINITY SkylakeX SINGLE_THREADED
        Core in use  :  SkylakeX
   Copyright (c) 2011-2014, The OpenBLAS Project


  ***********************************
  * Starting time: Wed Aug 20 09:06:57 2025
  * Host name:     csed-0009
  * Process ID:    1565887
  * Working dir.:  /gpfs/fs1/home/copan/proj/cyclopentene-oh-addition-project/calc/C3e1+OH__C3y1o2/run-revdsd
  ***********************************

NOTE: MaxCore=10000 MB was set to SCF,MP2,MDCI,CIPSI,MRCI,RASCI and CIS
      => If you want to overwrite this, your respective input block should be placed after the MaxCore statement


***************************************
The coordinates will be read from file: guess.xyz
***************************************


Your calculation utilizes the atom-pairwise dispersion correction
based on EEQ partial charges (D4)


Warning: RI is on but no J-basis has been assigned. Assigning Def2/J (nothing to worry about!)
================================================================================

----- Orbital basis set information -----
Your calculation utilizes the basis: def2-TZVPP
   F. Weigend and R. Ahlrichs, Phys. Chem. Chem. Phys. 7, 3297 (2005).

----- AuxJ basis set information -----
Your calculation utilizes the auxiliary basis: def2/J
   H-Rn: F. Weigend, Phys. Chem. Chem. Phys. 8, 1057 (2006).
   Fr-Lr: K. Eichkorn, F. Weigend, O. Treutler, R. Ahlrichs; Theor. Chem. Acc. 97, 119 (1997).

----- AuxC basis set information -----
Your calculation utilizes the auxiliary basis: def2-TZVPP/C
  H-La, Hf-Rn : A. Hellweg, C. Hattig, S. Hofener and W. Klopper, Theor. Chem. Acc. 117, 587 (2007).
        Ce-Lu : J. Chmela and M. E. Harding, Mol. Phys. (2018).

================================================================================
                                        WARNINGS
                       Please study these warnings very carefully!
================================================================================


WARNING: your system is open-shell and RHF/RKS was chosen
  ===> : WILL SWITCH to UHF/UKS


WARNING: The frozen-core approximation for MP2-gradient calculations is turned on by default.

WARNING: The environment variable RSH_COMMAND is not set!
  ===> : All Displacements for the Numerical Hessian or Gradient calculation
         will be started on localhost

WARNING: Geometry Optimization
  ===> : Switching off AutoStart
         For restart on a previous wavefunction, please use MOREAD

WARNING: The frozen-core approximation is turned on by default for 
         the MP2 part of double-hybrid DFT.

================================================================================
                                       INPUT FILE
================================================================================
NAME = opt.inp
|  1> % MaxCore 10000
|  2> ! PAL8
|  3> ! REVDSD-PBEP86-D4/2021 def2-TZVPP def2-TZVPP/c
|  4> ! OptTS
|  5> ! NumFreq
|  6> %geom 
|  7>    Calc_Hess true
|  8>    NumHess   true
|  9> end
| 10> * xyzfile 0 2 guess.xyz
| 11> 
| 12>                          ****END OF INPUT****
================================================================================

                       *****************************
                       * Geometry Optimization Run *
                       *****************************

Geometry optimization settings:
Update method            Update   .... Bofill
Choice of coordinates    CoordSys .... (2022) Redundant Internals
Initial Hessian          InHess   .... Almloef's Model
Max. no of cycles        MaxIter  .... 50

Convergence Tolerances:
Energy Change            TolE     ....  5.0000e-06 Eh
Max. Gradient            TolMAXG  ....  3.0000e-04 Eh/bohr
RMS Gradient             TolRMSG  ....  1.0000e-04 Eh/bohr
Max. Displacement        TolMAXD  ....  4.0000e-03 bohr
RMS Displacement         TolRMSD  ....  2.0000e-03 bohr
Strict Convergence                .... False

------------------------------------------------------------------------------
                        ORCA OPTIMIZATION COORDINATE SETUP
------------------------------------------------------------------------------

The optimization will be done in redundant internal coordinates (2022)
Making redundant internal coordinates   ...  (2022 redundants) done
Following TS mode number                ...     0
Evaluating the initial hessian          ...  (Is done on the fly) done
Evaluating the coordinates              ...  done
Calculating the B-matrix                .... done
Calculating the G-matrix                .... done
The number of degrees of freedom        ....   86

    -----------------------------------------------------------------
                    Redundant Internal Coordinates


    -----------------------------------------------------------------
         Definition                    Initial Value    d2E/dq (diagonal element)
    -----------------------------------------------------------------
      1. B(H   1,C   0)                  1.0814         0.000000   
      2. B(C   2,C   0)                  1.3496         0.000000   
      3. B(H   3,C   2)                  1.0793         0.000000   
      4. B(H   4,C   2)                  1.0817         0.000000   
      5. B(C   5,C   0)                  1.4948         0.000000   
      6. B(H   6,C   5)                  1.0880         0.000000   
      7. B(H   7,C   5)                  1.0867         0.000000   
      8. B(H   8,C   5)                  1.0959         0.000000   
      9. B(O   9,C   2)                  2.7324         0.000000   
     10. B(O   9,C   0)                  2.3085         0.000000   
     11. B(O   9,H   1)                  2.2887         0.000000   
     12. B(O   9,C   5)                  2.9685         0.000000   
     13. B(O   9,H   7)                  2.7527         0.000000   
     14. B(H  10,H   3)                  2.7391         0.000000   
     15. B(H  10,C   0)                  2.5938         0.000000   
     16. B(H  10,C   2)                  2.5480         0.000000   
     17. B(H  10,O   9)                  0.9687         0.000000   
     18. B(H  10,H   1)                  2.8591         0.000000   
     19. A(H   1,C   0,O   9)           75.3746         0.000000   
     20. A(C   2,C   0,C   5)          117.4571         0.000000   
     21. A(H   1,C   0,C   2)          118.6406         0.000000   
     22. A(C   2,C   0,O   9)           92.9010         0.000000   
     23. A(H   1,C   0,C   5)          123.8765         0.000000   
     24. A(C   5,C   0,O   9)          100.4160         0.000000   
     25. A(C   0,C   2,H   4)          120.8535         0.000000   
     26. A(H   4,C   2,O   9)          120.1086         0.000000   
     27. A(H   3,C   2,O   9)           92.4640         0.000000   
     28. A(C   0,C   2,O   9)           57.5424         0.000000   
     29. A(H   3,C   2,H   4)          117.8478         0.000000   
     30. A(C   0,C   2,H   3)          121.2932         0.000000   
     31. A(C   0,C   5,H   6)          111.0182         0.000000   
     32. A(H   8,C   5,O   9)          148.9875         0.000000   
     33. A(H   7,C   5,O   9)           68.0124         0.000000   
     34. A(H   7,C   5,H   8)          107.8231         0.000000   
     35. A(H   6,C   5,H   8)          108.2493         0.000000   
     36. A(C   0,C   5,H   8)          110.2843         0.000000   
     37. A(H   6,C   5,H   7)          108.7402         0.000000   
     38. A(C   0,C   5,H   7)          110.6303         0.000000   
     39. A(C   0,C   5,O   9)           49.8960         0.000000   
     40. A(H   6,C   5,O   9)          101.8782         0.000000   
     41. A(C   2,O   9,C   5)           50.3030         0.000000   
     42. A(C   0,O   9,C   5)           29.6880         0.000000   
     43. A(C   5,O   9,H  10)           97.7569         0.000000   
     44. A(C   0,O   9,C   2)           29.5566         0.000000   
     45. A(C   2,O   9,H  10)           68.8278         0.000000   
     46. A(C   0,O   9,H  10)           95.9056         0.000000   
     47. D(H   3,C   2,C   0,H   1)      3.9924         0.000000   
     48. D(H   4,C   2,C   0,H   1)   -176.8800         0.000000   
     49. D(H   4,C   2,C   0,C   5)      4.8964         0.000000   
     50. D(H   4,C   2,C   0,O   9)    108.2134         0.000000   
     51. D(O   9,C   2,C   0,H   1)     74.9066         0.000000   
     52. D(H   3,C   2,C   0,C   5)   -174.2312         0.000000   
     53. D(H   3,C   2,C   0,O   9)    -70.9142         0.000000   
     54. D(O   9,C   2,C   0,C   5)   -103.3170         0.000000   
     55. D(H   7,C   5,C   0,H   1)    -46.4435         0.000000   
     56. D(H   6,C   5,C   0,O   9)    -87.9764         0.000000   
     57. D(H   7,C   5,C   0,C   2)    131.6786         0.000000   
     58. D(H   7,C   5,C   0,O   9)     32.8483         0.000000   
     59. D(H   8,C   5,C   0,H   1)     72.7540         0.000000   
     60. D(H   6,C   5,C   0,C   2)     10.8539         0.000000   
     61. D(H   8,C   5,C   0,C   2)   -109.1239         0.000000   
     62. D(H   6,C   5,C   0,H   1)   -167.2683         0.000000   
     63. D(C   5,O   9,C   2,H   3)    160.4821         0.000000   
     64. D(C   5,O   9,C   2,C   0)     34.4118         0.000000   
     65. D(C   0,O   9,C   2,H   4)   -109.4973         0.000000   
     66. D(H  10,O   9,C   2,H   4)     45.5541         0.000000   
     67. D(H  10,O   9,C   2,H   3)    -78.8783         0.000000   
     68. D(H  10,O   9,C   2,C   0)    155.0514         0.000000   
     69. D(C   5,O   9,C   0,C   2)   -118.6023         0.000000   
     70. D(C   5,O   9,C   0,H   1)    122.5308         0.000000   
     71. D(C   2,O   9,C   0,C   5)    118.6023         0.000000   
     72. D(C   0,O   9,C   2,H   3)    126.0704         0.000000   
     73. D(C   2,O   9,C   5,H   6)     73.3259         0.000000   
     74. D(C   2,O   9,C   0,H   1)   -118.8669         0.000000   
     75. D(H  10,O   9,C   0,C   5)     95.3094         0.000000   
     76. D(C   5,O   9,C   2,H   4)    -75.0855         0.000000   
     77. D(C   0,O   9,C   5,H   6)    107.5798         0.000000   
     78. D(H  10,O   9,C   0,C   2)    -23.2929         0.000000   
     79. D(H  10,O   9,C   5,H   8)   -146.9065         0.000000   
     80. D(H  10,O   9,C   5,H   7)    124.8697         0.000000   
     81. D(H  10,O   9,C   0,H   1)   -142.1598         0.000000   
     82. D(C   0,O   9,C   5,H   7)   -146.8075         0.000000   
     83. D(C   0,O   9,C   5,H   8)    -58.5837         0.000000   
     84. D(C   2,O   9,C   5,C   0)    -34.2540         0.000000   
     85. D(H  10,O   9,C   5,H   6)     19.2571         0.000000   
     86. D(H  10,O   9,C   5,C   0)    -88.3228         0.000000   
    -----------------------------------------------------------------

Number of atoms                         .... 11
Number of degrees of freedom            .... 86


         *************************************************************
         *                GEOMETRY OPTIMIZATION CYCLE   1            *
         *************************************************************
---------------------------------
CARTESIAN COORDINATES (ANGSTROEM)
---------------------------------
  C      0.000000    0.000000    0.000000
  H      0.000000    0.000000    1.081429
  C      1.184456    0.000000   -0.646875
  H      2.117482   -0.064215   -0.108097
  H      1.226882    0.050541   -1.726531
  C     -1.240395   -0.041119   -0.833230
  H     -1.004891   -0.257270   -1.873253
  H     -1.924121   -0.801239   -0.464812
  H     -1.757943    0.923958   -0.791981
  O      0.185220   -2.226050    0.582902
  H      0.798192   -2.464609   -0.128190

----------------------------
CARTESIAN COORDINATES (A.U.)
----------------------------
  NO LB      ZA    FRAG     MASS         X           Y           Z
   0 C     6.0000    0    12.011    0.000000    0.000000    0.000000
   1 H     1.0000    0     1.008    0.000000    0.000000    2.043605
   2 C     6.0000    0    12.011    2.238297    0.000000   -1.222417
   3 H     1.0000    0     1.008    4.001461   -0.121349   -0.204274
   4 H     1.0000    0     1.008    2.318471    0.095509   -3.262671
   5 C     6.0000    0    12.011   -2.344007   -0.077704   -1.574577
   6 H     1.0000    0     1.008   -1.898969   -0.486170   -3.539935
   7 H     1.0000    0     1.008   -3.636062   -1.514122   -0.878367
   8 H     1.0000    0     1.008   -3.322031    1.746028   -1.496627
   9 O     8.0000    0    15.999    0.350015   -4.206625    1.101525
  10 H     1.0000    0     1.008    1.508364   -4.657436   -0.242244

--------------------------------
INTERNAL COORDINATES (ANGSTROEM)
--------------------------------
 C      0   0   0     0.000000000000     0.00000000     0.00000000
 H      1   0   0     1.081429000000     0.00000000     0.00000000
 C      1   2   0     1.349586337202   118.64057759     0.00000000
 H      3   1   2     1.079325167030   121.29321519     3.99241715
 H      3   1   2     1.081670669147   120.85347427   183.12000333
 C      1   2   3     1.494838707382   123.87649919   178.10134455
 H      6   1   2     1.088040086277   111.01821661   192.73171637
 H      6   1   2     1.086736159424   110.63028422   313.55648371
 H      6   1   2     1.095869986921   110.28429328    72.75400155
 O      2   1   3     2.288697057417    77.41889957   274.75637796
 H     10   2   1     0.968657267422   116.78548480    43.12171453

---------------------------
INTERNAL COORDINATES (A.U.)
---------------------------
 C      0   0   0     0.000000000000     0.00000000     0.00000000
 H      1   0   0     2.043604643280     0.00000000     0.00000000
 C      1   2   0     2.550348571393   118.64057759     0.00000000
 H      3   1   2     2.039628975136   121.29321519     3.99241715
 H      3   1   2     2.044061331783   120.85347427   183.12000333
 C      1   2   3     2.824835771336   123.87649919   178.10134455
 H      6   1   2     2.056097785792   111.01821661   192.73171637
 H      6   1   2     2.053633721141   110.63028422   313.55648371
 H      6   1   2     2.070894153664   110.28429328    72.75400155
 O      2   1   3     4.325010642029    77.41889957   274.75637796
 H     10   2   1     1.830496953060   116.78548480    43.12171453

---------------------
BASIS SET INFORMATION
---------------------
There are 3 groups of distinct atoms

 Group   1 Type C   : 11s6p2d1f contracted to 5s3p2d1f pattern {62111/411/11/1}
 Group   2 Type H   : 5s2p1d contracted to 3s2p1d pattern {311/11/1}
 Group   3 Type O   : 11s6p2d1f contracted to 5s3p2d1f pattern {62111/411/11/1}

Atom   0C    basis set group =>   1
Atom   1H    basis set group =>   2
Atom   2C    basis set group =>   1
Atom   3H    basis set group =>   2
Atom   4H    basis set group =>   2
Atom   5C    basis set group =>   1
Atom   6H    basis set group =>   2
Atom   7H    basis set group =>   2
Atom   8H    basis set group =>   2
Atom   9O    basis set group =>   3
Atom  10H    basis set group =>   2
---------------------------------
AUXILIARY/J BASIS SET INFORMATION
---------------------------------
There are 3 groups of distinct atoms

 Group   1 Type C   : 12s5p4d2f1g contracted to 6s4p3d1f1g pattern {711111/2111/211/2/1}
 Group   2 Type H   : 5s2p1d contracted to 3s1p1d pattern {311/2/1}
 Group   3 Type O   : 12s5p4d2f1g contracted to 6s4p3d1f1g pattern {711111/2111/211/2/1}

Atom   0C    basis set group =>   1
Atom   1H    basis set group =>   2
Atom   2C    basis set group =>   1
Atom   3H    basis set group =>   2
Atom   4H    basis set group =>   2
Atom   5C    basis set group =>   1
Atom   6H    basis set group =>   2
Atom   7H    basis set group =>   2
Atom   8H    basis set group =>   2
Atom   9O    basis set group =>   3
Atom  10H    basis set group =>   2
---------------------------------
AUXILIARY/C BASIS SET INFORMATION
---------------------------------
There are 3 groups of distinct atoms

 Group   1 Type C   : 8s6p5d3f1g contracted to 8s6p4d3f1g pattern {11111111/111111/2111/111/1}
 Group   2 Type H   : 4s3p2d1f contracted to 4s3p2d1f pattern {1111/111/11/1}
 Group   3 Type O   : 8s6p5d3f1g contracted to 8s6p4d3f1g pattern {11111111/111111/2111/111/1}

Atom   0C    basis set group =>   1
Atom   1H    basis set group =>   2
Atom   2C    basis set group =>   1
Atom   3H    basis set group =>   2
Atom   4H    basis set group =>   2
Atom   5C    basis set group =>   1
Atom   6H    basis set group =>   2
Atom   7H    basis set group =>   2
Atom   8H    basis set group =>   2
Atom   9O    basis set group =>   3
Atom  10H    basis set group =>   2


           ************************************************************
           *        Program running with 8 parallel MPI-processes     *
           *              working on a common directory               *
           ************************************************************
------------------------------------------------------------------------------
                             ORCA STARTUP CALCULATIONS
                           -- RI-GTO INTEGRALS CHOSEN --
------------------------------------------------------------------------------
------------------------------------------------------------------------------
                   ___                                                        
                  /   \      - P O W E R E D   B Y -                         
                 /     \                                                     
                 |  |  |   _    _      __       _____    __    __             
                 |  |  |  | |  | |    /  \     |  _  \  |  |  /  |          
                  \  \/   | |  | |   /    \    | | | |  |  | /  /          
                 / \  \   | |__| |  /  /\  \   | |_| |  |  |/  /          
                |  |  |   |  __  | /  /__\  \  |    /   |      \           
                |  |  |   | |  | | |   __   |  |    \   |  |\   \          
                \     /   | |  | | |  |  |  |  | |\  \  |  | \   \       
                 \___/    |_|  |_| |__|  |__|  |_| \__\ |__|  \__/        
                                                                              
                      - O R C A' S   B I G   F R I E N D -                    
                                      &                                       
                       - I N T E G R A L  F E E D E R -                       
                                                                              
 v1 FN, 2020, v2 2021, v3 2022-2024                                           
------------------------------------------------------------------------------


----------------------
SHARK INTEGRAL PACKAGE
----------------------

Number of atoms                             ...     11
Number of basis functions                   ...    222
Number of shells                            ...     86
Maximum angular momentum                    ...      3
Integral batch strategy                     ... SHARK/LIBINT Hybrid
RI-J (if used) integral strategy            ... SPLIT-RIJ (Revised 2003 algorithm where possible)
Printlevel                                  ...      1
Contraction scheme used                     ... SEGMENTED contraction
Prescreening option                         ... SCHWARTZ
   Thresh                                   ... 2.500e-11
   Tcut                                     ... 2.500e-12
   Tpresel                                  ... 2.500e-12 
Coulomb Range Separation                    ... NOT USED
Exchange Range Separation                   ... NOT USED
Multipole approximations                    ... NOT USED
Finite Nucleus Model                        ... NOT USED
CABS basis                                  ... NOT available
Auxiliary Coulomb fitting basis             ... AVAILABLE
   # of basis functions in Aux-J            ...    273
   # of shells in Aux-J                     ...     95
   Maximum angular momentum in Aux-J        ...      4
Auxiliary J/K fitting basis                 ... NOT available
Auxiliary Correlation fitting basis         ... AVAILABLE
   # of basis functions in Aux-C            ...    514
   # of shells in Aux-C                     ...    158
   Maximum angular momentum in Aux-C        ...      4
Auxiliary 'external' fitting basis          ... NOT available

Checking pre-screening integrals            ... done (  0.0 sec) Dimension = 86
   => SHARK Basis and OBASIS are compatible. Storing Pre-screening
Shell pair information
Shell pair cut-off parameter TPreSel        ...   2.5e-12
Total number of shell pairs                 ...      3741
Shell pairs after pre-screening             ...      3611
Total number of primitive shell pairs       ...      9425
Primitive shell pairs kept                  ...      7555
          la=0 lb=0:    817 shell pairs
          la=1 lb=0:   1031 shell pairs
          la=1 lb=1:    344 shell pairs
          la=2 lb=0:    587 shell pairs
          la=2 lb=1:    380 shell pairs
          la=2 lb=2:    118 shell pairs
          la=3 lb=0:    161 shell pairs
          la=3 lb=1:    103 shell pairs
          la=3 lb=2:     60 shell pairs
          la=3 lb=3:     10 shell pairs

Checking whether 4 symmetric matrices of dimension 222 fit in memory
:Max Core in MB      =  10000.00
 MB in use           =      7.80
 MB left             =   9992.20
 MB needed           =      0.76
 Data fit in memory  = YES
Calculating RI/J V-Matrix + Cholesky decomp.... done (  0.1 sec)
Calculating RI/C V-Matrix + Cholesky decomp.... done (  0.0 sec)
Calculating Nuclear repulsion               ... done (  0.0 sec) ENN=    117.159487410583 Eh

Diagonalization of the overlap matrix:
Smallest eigenvalue                        ... 1.534e-04
Time for diagonalization                   ...    0.020 sec
Threshold for overlap eigenvalues          ... 1.000e-07
Number of eigenvalues below threshold      ... 0
Time for construction of square roots      ...    0.083 sec
Total time needed                          ...    0.105 sec

-------------------
DFT GRID GENERATION
-------------------

General Integration Accuracy     IntAcc      ... 4.388
Radial Grid Type                 RadialGrid  ... OptM3 with GC (2021)
Angular Grid (max. ang.)         AngularGrid ... 4 (Lebedev-302)
Angular grid pruning method      GridPruning ... 4 (adaptive)
Weight generation scheme         WeightScheme... mBecke (2022)
Basis function cutoff            BFCut       ... 1.0000e-11
Integration weight cutoff        WCut        ... 1.0000e-14
Partially contracted basis set               ... off
Rotationally invariant grid construction     ... off
Angular grids for H and He will be reduced by one unit

Total number of grid points                  ...    46966
Total number of batches                      ...      739
Average number of points per batch           ...       63
Average number of grid points per atom       ...     4270

--------------------
COSX GRID GENERATION
--------------------

GRIDX 1
-------
General Integration Accuracy     IntAcc      ... 3.816
Radial Grid Type                 RadialGrid  ... OptM3 with GC (2021)
Angular Grid (max. ang.)         AngularGrid ... 1 (Lebedev-50)
Angular grid pruning method      GridPruning ... 4 (adaptive)
Weight generation scheme         WeightScheme... mBecke (2022)
Basis function cutoff            BFCut       ... 1.0000e-11
Integration weight cutoff        WCut        ... 1.0000e-14
Partially contracted basis set               ... on
Rotationally invariant grid construction     ... off
Angular grids for H and He will be reduced by one unit

Total number of grid points                  ...     6056
Total number of batches                      ...       54
Average number of points per batch           ...      112
Average number of grid points per atom       ...      551
UseSFitting                                  ... on

GRIDX 2
-------
General Integration Accuracy     IntAcc      ... 4.020
Radial Grid Type                 RadialGrid  ... OptM3 with GC (2021)
Angular Grid (max. ang.)         AngularGrid ... 2 (Lebedev-110)
Angular grid pruning method      GridPruning ... 4 (adaptive)
Weight generation scheme         WeightScheme... mBecke (2022)
Basis function cutoff            BFCut       ... 1.0000e-11
Integration weight cutoff        WCut        ... 1.0000e-14
Partially contracted basis set               ... on
Rotationally invariant grid construction     ... off
Angular grids for H and He will be reduced by one unit

Total number of grid points                  ...    12759
Total number of batches                      ...      106
Average number of points per batch           ...      120
Average number of grid points per atom       ...     1160
UseSFitting                                  ... on

GRIDX 3
-------
General Integration Accuracy     IntAcc      ... 4.338
Radial Grid Type                 RadialGrid  ... OptM3 with GC (2021)
Angular Grid (max. ang.)         AngularGrid ... 3 (Lebedev-194)
Angular grid pruning method      GridPruning ... 4 (adaptive)
Weight generation scheme         WeightScheme... mBecke (2022)
Basis function cutoff            BFCut       ... 1.0000e-11
Integration weight cutoff        WCut        ... 1.0000e-14
Partially contracted basis set               ... on
Rotationally invariant grid construction     ... off
Angular grids for H and He will be reduced by one unit

Total number of grid points                  ...    27999
Total number of batches                      ...      224
Average number of points per batch           ...      124
Average number of grid points per atom       ...     2545
UseSFitting                                  ... on
Grids setup in   0.4 sec
Initializing property integral containers    ... done (  0.0 sec)

SHARK setup successfully completed in   1.3 seconds

Maximum memory used throughout the entire STARTUP-calculation: 17.2 MB


           ************************************************************
           *        Program running with 8 parallel MPI-processes     *
           *              working on a common directory               *
           ************************************************************
-------------------------------------------------------------------------------
                                 ORCA GUESS
                   Start orbitals & Density for SCF / CASSCF
-------------------------------------------------------------------------------

------------
SCF SETTINGS
------------
Hamiltonian:
 Density Functional     Method          .... DFT(GTOs)
 Exchange Functional    Exchange        .... PBE
   PBE kappa parameter   XKappa         ....  0.804000
   PBE mue parameter    XMuePBE         ....  0.219520
 Correlation Functional Correlation     .... P86
 LDA part of GGA corr.  LDAOpt          .... VWN-5
 Gradients option       PostSCFGGA      .... off
 Hybrid DFT is turned on
   Fraction HF Exchange ScalHFX         ....  0.690000
   Scaling of DF-GGA-X  ScalDFX         ....  0.310000
   Scaling of DF-GGA-C  ScalDFC         ....  0.422400
   Scaling of DF-LDA-C  ScalLDAC        ....  0.422400
   Perturbative correction              ....  1.000000
 RI-approximation to the Coulomb term is turned on
   Number of AuxJ basis functions       .... 273
   RIJ-COSX (HFX calculated with COS-X)).... on


General Settings:
 Integral files         IntName         .... opt
 Hartree-Fock type      HFTyp           .... UHF
 Total Charge           Charge          ....    0
 Multiplicity           Mult            ....    2
 Number of Electrons    NEL             ....   33
 Basis Dimension        Dim             ....  222
 Nuclear Repulsion      ENuc            ....    117.1594874106 Eh

Convergence Acceleration:
 AO-DIIS                CNVDIIS         .... on
   Start iteration      DIISMaxIt       ....    12
   Startup error        DIISStart       ....  0.200000
   # of expansion vecs  DIISMaxEq       ....     5
   Bias factor          DIISBfac        ....   1.050
   Max. coefficient     DIISMaxC        ....  10.000
 MO-DIIS                CNVKDIIS        .... off
 Trust-Rad. Augm. Hess. CNVTRAH         .... auto
   Auto Start mean grad. ratio tolernc. ....  1.125000
   Auto Start start iteration           ....    50
   Auto Start num. interpolation iter.  ....    10
   Max. Number of Micro iterations      ....    24
   Max. Number of Macro iterations      .... Maxiter - #DIIS iter
   Number of Davidson start vectors     ....     2
   Converg. threshold    (grad. norm)   ....   1.000e-05
   Grad. Scal. Fac. for Micro threshold ....   0.100
   Minimum threshold for Micro iter.    ....   1.000e-02
   NR start threshold (gradient norm)   ....   1.000e-04
   Initial trust radius                 ....   0.400
   Minimum AH scaling param. (alpha)    ....   1.000
   Maximum AH scaling param. (alpha)    .... 1000.000
   Quad. conv. algorithm                .... NR
   White noise on init. David. guess    .... on
   Maximum white noise                  ....   0.010
   Pseudo random numbers                .... off
   Inactive MOs                         .... canonical
   Orbital update algorithm             .... Taylor
   Preconditioner                       .... Diag
   Full preconditioner red. dimension   ....   250
 SOSCF                 CNVSOSCF           .... on
   Start iteration     SOSCFMaxIt         ....   150
   Startup grad/error  SOSCFStart         ....  0.003300
   Hessian update      SOSCFHessUp        .... L-BFGS
   Autom. constraints  SOSCFAutoConstrain .... off
 Level Shifting         CNVShift        .... on
   Level shift para.    LevelShift      ....    0.2500
   Turn off err/grad.   ShiftErr        ....    0.0010
 Zerner damping         CNVZerner       .... off
 Static damping         CNVDamp         .... on
   Fraction old density DampFac         ....    0.7000
   Max. Damping (<1)    DampMax         ....    0.9800
   Min. Damping (>=0)   DampMin         ....    0.0000
   Turn off err/grad.   DampErr         ....    0.1000

SCF Procedure:
 Maximum # iterations   MaxIter         ....   125
 SCF integral mode      SCFMode         .... Direct
   Integral package                     .... SHARK and LIBINT hybrid scheme
 Reset frequency        DirectResetFreq ....    20
 Integral Threshold     Thresh          ....  2.500e-11 Eh
 Primitive CutOff       TCut            ....  2.500e-12 Eh

Convergence Tolerance:
 Convergence Check Mode ConvCheckMode   .... Total+1el-Energy
 Convergence forced     ConvForced      .... 0
 Energy Change          TolE            ....  1.000e-08 Eh
 1-El. energy change                    ....  1.000e-05 Eh
 Orbital Gradient       TolG            ....  1.000e-05
 Orbital Rotation angle TolX            ....  1.000e-05
 DIIS Error             TolErr          ....  5.000e-07

------------------------------
INITIAL GUESS: MODEL POTENTIAL
------------------------------
Loading Hartree-Fock densities                     ... done
Calculating cut-offs                               ... done
Initializing the effective Hamiltonian             ... done
Setting up the integral package (SHARK)            ... done
Starting the Coulomb interaction                   ... done (   0.1 sec)
Making the grid                                    ... done (   0.0 sec)
Mapping shells                                     ... done
Starting the XC term evaluation                    ... done (   0.0 sec)
  promolecular density results
     # of electrons  =     32.997778506
     EX              =    -25.453289108
     EC              =      0.035314435
     EX+EC           =    -25.417974674
Transforming the Hamiltonian                       ... done (   0.0 sec)
Diagonalizing the Hamiltonian                      ... done (   0.1 sec)
Back transforming the eigenvectors                 ... done (   0.0 sec)
Now organizing SCF variables                       ... done
                      ------------------
                      INITIAL GUESS DONE (   0.3 sec)
                      ------------------
             **** ENERGY FILE WAS UPDATED (opt.en.tmp) ****
Finished Guess after   0.9 sec
Maximum memory used throughout the entire GUESS-calculation: 12.5 MB


           ************************************************************
           *        Program running with 8 parallel MPI-processes     *
           *              working on a common directory               *
           ************************************************************

-------------------------------------------------------------------------------------------
                                      ORCA LEAN-SCF
                              memory conserving SCF solver
-------------------------------------------------------------------------------------------

----------------------------------------D-I-I-S--------------------------------------------
Iteration    Energy (Eh)           Delta-E    RMSDP     MaxDP     DIISErr   Damp  Time(sec)
-------------------------------------------------------------------------------------------
               ***  Starting incremental Fock matrix formation  ***
    1    -192.7627299606359657     0.00e+00  1.82e-03  2.48e-02  1.57e-01  0.700   0.8
    2    -192.8373519690851481    -7.46e-02  1.32e-03  1.95e-02  8.42e-02  0.700   0.5
                               ***Turning on AO-DIIS***
    3    -192.8751496867450328    -3.78e-02  6.21e-04  1.19e-02  5.03e-02  0.700   0.5
    4    -192.8993414952503258    -2.42e-02  1.77e-03  3.42e-02  4.28e-02  0.000   0.5
    5    -192.9620487020654309    -6.27e-02  6.94e-04  1.03e-02  2.51e-02  0.000   0.5
    6    -192.9671748838741223    -5.13e-03  7.68e-04  8.54e-03  1.78e-02  0.000   0.4
    7    -192.9713430506669170    -4.17e-03  5.18e-04  6.25e-03  1.49e-02  0.000   0.5
    8    -192.9734866277767651    -2.14e-03  3.79e-04  4.27e-03  8.63e-03  0.000   0.4
    9    -192.9743284875349332    -8.42e-04  2.21e-04  2.37e-03  4.97e-03  0.000   0.5
                              *** Initializing SOSCF ***
---------------------------------------S-O-S-C-F--------------------------------------
Iteration    Energy (Eh)           Delta-E    RMSDP     MaxDP     MaxGrad    Time(sec)
--------------------------------------------------------------------------------------
   10    -192.9745919284219440    -2.63e-04  1.23e-04  1.42e-03  2.40e-03     0.5
               *** Restarting incremental Fock matrix formation ***
   11    -192.9746203041119088    -2.84e-05  8.94e-05  1.48e-03  1.75e-03     0.7
   12    -192.9746339347075264    -1.36e-05  6.94e-05  1.06e-03  4.28e-04     0.6
   13    -192.9746390629406392    -5.13e-06  2.55e-05  4.92e-04  1.26e-04     0.6
   14    -192.9746396780747659    -6.15e-07  1.22e-05  2.65e-04  4.23e-05     0.6
   15    -192.9746397560172113    -7.79e-08  1.61e-06  1.79e-05  1.91e-05     0.5
   16    -192.9746397655670762    -9.55e-09  1.48e-06  3.17e-05  1.22e-05     0.5
                 **** Energy Check signals convergence ****

               *****************************************************
               *                     SUCCESS                       *
               *           SCF CONVERGED AFTER  16 CYCLES          *
               *****************************************************

Recomputing exchange energy using gridx3       ... done (    0.846 sec)
Old exchange energy                            :    -18.102510235 Eh
New exchange energy                            :    -18.102580056 Eh
Exchange energy change after final integration :     -0.000069821 Eh
Total energy after final integration           :   -192.974709593 Eh
             **** ENERGY FILE WAS UPDATED (opt.en.tmp) ****

----------------
TOTAL SCF ENERGY
----------------

Total Energy       :       -192.97470959265414 Eh           -5251.10881 eV

Components:
Nuclear Repulsion  :        117.15948741058317 Eh            3188.07173 eV
Electronic Energy  :       -310.13412718175493 Eh           -8439.17864 eV
One Electron Energy:       -493.57680546975644 Eh          -13430.90769 eV
Two Electron Energy:        183.44267828800150 Eh            4991.72905 eV

Virial components:
Potential Energy   :       -385.53233605171863 Eh          -10490.86821 eV
Kinetic Energy     :        192.55762645906452 Eh            5239.75940 eV
Virial Ratio       :          2.00216601721396

DFT components:
N(Alpha)           :       16.999991766867 electrons
N(Beta)            :       15.999991082356 electrons
N(Total)           :       32.999982849223 electrons
E(X)               :       -8.093677332403 Eh       
E(C)               :       -0.488897293487 Eh       
E(XC)              :       -8.582574625890 Eh       

---------------
SCF CONVERGENCE
---------------

  Last Energy change         ...    9.5499e-09  Tolerance :   1.0000e-08
  Last MAX-Density change    ...    3.1652e-05  Tolerance :   1.0000e-07
  Last RMS-Density change    ...    1.4799e-06  Tolerance :   5.0000e-09
  Last DIIS Error            ...    2.4007e-03  Tolerance :   5.0000e-07
  Last Orbital Gradient      ...    1.2186e-05  Tolerance :   1.0000e-05
  Last Orbital Rotation      ...    2.7827e-05  Tolerance :   1.0000e-05


----------------------
UHF SPIN CONTAMINATION
----------------------

Warning: in a DFT calculation there is little theoretical justification to 
         calculate <S**2> as in Hartree-Fock theory. We will do it anyways
         but you should keep in mind that the values have only limited relevance

Expectation value of <S**2>     :     0.810301
Ideal value S*(S+1) for S=0.5   :     0.750000
Deviation                       :     0.060301

----------------
ORBITAL ENERGIES
----------------
                 SPIN UP ORBITALS
  NO   OCC          E(Eh)            E(eV) 
   0   1.0000     -20.047807      -545.5286 
   1   1.0000     -10.829913      -294.6969 
   2   1.0000     -10.812122      -294.2128 
   3   1.0000     -10.806481      -294.0593 
   4   1.0000      -1.223120       -33.2828 
   5   1.0000      -0.969542       -26.3826 
   6   1.0000      -0.843075       -22.9412 
   7   1.0000      -0.694886       -18.9088 
   8   1.0000      -0.590078       -16.0568 
   9   1.0000      -0.577789       -15.7224 
  10   1.0000      -0.549114       -14.9421 
  11   1.0000      -0.523973       -14.2580 
  12   1.0000      -0.502245       -13.6668 
  13   1.0000      -0.466038       -12.6815 
  14   1.0000      -0.451969       -12.2987 
  15   1.0000      -0.447237       -12.1699 
  16   1.0000      -0.326466        -8.8836 
  17   0.0000       0.085320         2.3217 
  18   0.0000       0.112934         3.0731 
  19   0.0000       0.136264         3.7079 
  20   0.0000       0.147969         4.0264 
  21   0.0000       0.158108         4.3023 
  22   0.0000       0.182826         4.9750 
  23   0.0000       0.187755         5.1091 
  24   0.0000       0.210541         5.7291 
  25   0.0000       0.237897         6.4735 
  26   0.0000       0.273401         7.4396 
  27   0.0000       0.284535         7.7426 

                 SPIN DOWN ORBITALS
  NO   OCC          E(Eh)            E(eV) 
   0   1.0000     -20.014436      -544.6205 
   1   1.0000     -10.834079      -294.8103 
   2   1.0000     -10.806058      -294.0478 
   3   1.0000     -10.805305      -294.0273 
   4   1.0000      -1.109115       -30.1806 
   5   1.0000      -0.967691       -26.3322 
   6   1.0000      -0.834657       -22.7122 
   7   1.0000      -0.692135       -18.8340 
   8   1.0000      -0.583614       -15.8810 
   9   1.0000      -0.548686       -14.9305 
  10   1.0000      -0.522040       -14.2054 
  11   1.0000      -0.514544       -14.0014 
  12   1.0000      -0.464803       -12.6479 
  13   1.0000      -0.449079       -12.2201 
  14   1.0000      -0.415225       -11.2988 
  15   1.0000      -0.327958        -8.9242 
  16   0.0000       0.014022         0.3815 
  17   0.0000       0.090522         2.4632 
  18   0.0000       0.117158         3.1880 
  19   0.0000       0.139593         3.7985 
  20   0.0000       0.148798         4.0490 
  21   0.0000       0.163286         4.4432 
  22   0.0000       0.183143         4.9836 
  23   0.0000       0.187610         5.1051 
  24   0.0000       0.212227         5.7750 
  25   0.0000       0.238066         6.4781 
  26   0.0000       0.273723         7.4484 
*Only the first 10 virtual orbitals were printed.

                    ********************************
                    * MULLIKEN POPULATION ANALYSIS *
                    ********************************

--------------------------------------------
MULLIKEN ATOMIC CHARGES AND SPIN POPULATIONS
--------------------------------------------
   0 C :   -0.028442   -0.281901
   1 H :    0.142633    0.025826
   2 C :   -0.309891    0.401372
   3 H :    0.112042   -0.023776
   4 H :    0.093403   -0.029510
   5 C :   -0.222509    0.025427
   6 H :    0.074029   -0.001569
   7 H :    0.105866   -0.007685
   8 H :    0.085812   -0.013426
   9 O :   -0.292929    0.932799
  10 H :    0.239985   -0.027558
Sum of atomic charges         :   -0.0000000
Sum of atomic spin populations:    1.0000000

-----------------------------------------------------
MULLIKEN REDUCED ORBITAL CHARGES AND SPIN POPULATIONS
-----------------------------------------------------
CHARGE
  0 C s       :     3.120375  s :     3.120375
      pz      :     1.002562  p :     2.775256
      px      :     0.923211
      py      :     0.849483
      dz2     :     0.040201  d :     0.125252
      dxz     :     0.030092
      dyz     :     0.007557
      dx2y2   :     0.018255
      dxy     :     0.029148
      f0      :     0.001056  f :     0.007559
      f+1     :     0.001883
      f-1     :     0.000088
      f+2     :     0.001191
      f-2     :     0.001057
      f+3     :     0.000828
      f-3     :     0.001457

  1 H s       :     0.819296  s :     0.819296
      pz      :     0.018805  p :     0.036120
      px      :     0.008593
      py      :     0.008722
      dz2     :     0.000569  d :     0.001951
      dxz     :     0.000840
      dyz     :     0.000497
      dx2y2   :     0.000027
      dxy     :     0.000017

  2 C s       :     3.199860  s :     3.199860
      pz      :     1.015492  p :     3.029587
      px      :     0.995431
      py      :     1.018664
      dz2     :     0.027161  d :     0.075336
      dxz     :     0.021801
      dyz     :     0.003452
      dx2y2   :     0.011125
      dxy     :     0.011797
      f0      :     0.000751  f :     0.005108
      f+1     :     0.001160
      f-1     :     0.000044
      f+2     :     0.000825
      f-2     :     0.000531
      f+3     :     0.000765
      f-3     :     0.001032

  3 H s       :     0.848891  s :     0.848891
      pz      :     0.010048  p :     0.037194
      px      :     0.016341
      py      :     0.010805
      dz2     :     0.000379  d :     0.001873
      dxz     :     0.000453
      dyz     :     0.000104
      dx2y2   :     0.000369
      dxy     :     0.000569

  4 H s       :     0.863499  s :     0.863499
      pz      :     0.022033  p :     0.041075
      px      :     0.008163
      py      :     0.010879
      dz2     :     0.000552  d :     0.002023
      dxz     :     0.000765
      dyz     :     0.000661
      dx2y2   :     0.000026
      dxy     :     0.000019

  5 C s       :     3.152789  s :     3.152789
      pz      :     0.980929  p :     2.988180
      px      :     0.946986
      py      :     1.060264
      dz2     :     0.023412  d :     0.077812
      dxz     :     0.012767
      dyz     :     0.005943
      dx2y2   :     0.008707
      dxy     :     0.026984
      f0      :     0.000569  f :     0.003727
      f+1     :     0.000871
      f-1     :     0.000173
      f+2     :     0.000524
      f-2     :     0.000415
      f+3     :     0.000704
      f-3     :     0.000471

  6 H s       :     0.887932  s :     0.887932
      pz      :     0.017285  p :     0.036055
      px      :     0.009139
      py      :     0.009631
      dz2     :     0.000599  d :     0.001984
      dxz     :     0.000662
      dyz     :     0.000578
      dx2y2   :     0.000062
      dxy     :     0.000082

  7 H s       :     0.855893  s :     0.855893
      pz      :     0.009641  p :     0.036306
      px      :     0.011926
      py      :     0.014739
      dz2     :     0.000272  d :     0.001935
      dxz     :     0.000311
      dyz     :     0.000304
      dx2y2   :     0.000632
      dxy     :     0.000417

  8 H s       :     0.876119  s :     0.876119
      pz      :     0.008377  p :     0.036165
      px      :     0.010412
      py      :     0.017375
      dz2     :     0.000134  d :     0.001904
      dxz     :     0.000173
      dyz     :     0.000469
      dx2y2   :     0.000623
      dxy     :     0.000504

  9 O s       :     3.891601  s :     3.891601
      pz      :     1.590616  p :     4.388782
      px      :     1.713154
      py      :     1.085012
      dz2     :     0.001935  d :     0.012146
      dxz     :     0.005188
      dyz     :     0.001795
      dx2y2   :     0.002301
      dxy     :     0.000927
      f0      :     0.000038  f :     0.000400
      f+1     :     0.000171
      f-1     :     0.000007
      f+2     :     0.000081
      f-2     :     0.000069
      f+3     :     0.000012
      f-3     :     0.000022

 10 H s       :     0.672465  s :     0.672465
      pz      :     0.030047  p :     0.079367
      px      :     0.032704
      py      :     0.016616
      dz2     :     0.002681  d :     0.008183
      dxz     :     0.002333
      dyz     :     0.001046
      dx2y2   :     0.001340
      dxy     :     0.000783


SPIN
  0 C s       :    -0.033306  s :    -0.033306
      pz      :    -0.025339  p :    -0.258318
      px      :    -0.024304
      py      :    -0.208674
      dz2     :     0.000586  d :     0.008506
      dxz     :     0.000326
      dyz     :     0.002618
      dx2y2   :     0.002427
      dxy     :     0.002549
      f0      :     0.000136  f :     0.001216
      f+1     :     0.000036
      f-1     :     0.000042
      f+2     :     0.000097
      f-2     :     0.000212
      f+3     :     0.000134
      f-3     :     0.000559

  1 H s       :     0.027906  s :     0.027906
      pz      :     0.000620  p :    -0.001977
      px      :     0.000131
      py      :    -0.002728
      dz2     :     0.000036  d :    -0.000103
      dxz     :     0.000003
      dyz     :    -0.000149
      dx2y2   :     0.000006
      dxy     :     0.000002

  2 C s       :     0.042626  s :     0.042626
      pz      :     0.033465  p :     0.362192
      px      :     0.028849
      py      :     0.299878
      dz2     :     0.001342  d :    -0.002606
      dxz     :     0.001076
      dyz     :    -0.001307
      dx2y2   :    -0.001054
      dxy     :    -0.002662
      f0      :    -0.000108  f :    -0.000840
      f+1     :    -0.000011
      f-1     :    -0.000020
      f+2     :    -0.000121
      f-2     :    -0.000130
      f+3     :    -0.000189
      f-3     :    -0.000260

  3 H s       :    -0.027531  s :    -0.027531
      pz      :     0.000255  p :     0.003488
      px      :     0.000290
      py      :     0.002943
      dz2     :     0.000015  d :     0.000267
      dxz     :     0.000024
      dyz     :     0.000058
      dx2y2   :     0.000000
      dxy     :     0.000169

  4 H s       :    -0.032970  s :    -0.032970
      pz      :    -0.000236  p :     0.003221
      px      :    -0.000047
      py      :     0.003503
      dz2     :     0.000008  d :     0.000239
      dxz     :     0.000012
      dyz     :     0.000218
      dx2y2   :     0.000001
      dxy     :    -0.000001

  5 C s       :     0.005757  s :     0.005757
      pz      :     0.005404  p :     0.024176
      px      :     0.010669
      py      :     0.008104
      dz2     :     0.000006  d :    -0.004262
      dxz     :    -0.000043
      dyz     :    -0.000527
      dx2y2   :    -0.000176
      dxy     :    -0.003521
      f0      :    -0.000004  f :    -0.000244
      f+1     :    -0.000018
      f-1     :    -0.000013
      f+2     :    -0.000000
      f-2     :    -0.000135
      f+3     :    -0.000015
      f-3     :    -0.000060

  6 H s       :    -0.001834  s :    -0.001834
      pz      :     0.000185  p :     0.000261
      px      :     0.000075
      py      :     0.000000
      dz2     :     0.000002  d :     0.000005
      dxz     :     0.000004
      dyz     :     0.000002
      dx2y2   :     0.000000
      dxy     :    -0.000003

  7 H s       :    -0.007748  s :    -0.007748
      pz      :    -0.000059  p :     0.000067
      px      :     0.000115
      py      :     0.000012
      dz2     :    -0.000000  d :    -0.000004
      dxz     :    -0.000003
      dyz     :     0.000001
      dx2y2   :     0.000002
      dxy     :    -0.000003

  8 H s       :    -0.013544  s :    -0.013544
      pz      :    -0.000069  p :     0.000129
      px      :     0.000254
      py      :    -0.000057
      dz2     :     0.000001  d :    -0.000011
      dxz     :    -0.000002
      dyz     :    -0.000002
      dx2y2   :    -0.000006
      dxy     :    -0.000002

  9 O s       :     0.012740  s :     0.012740
      pz      :     0.074222  p :     0.920246
      px      :     0.020273
      py      :     0.825751
      dz2     :     0.000066  d :    -0.000034
      dxz     :     0.000100
      dyz     :    -0.000114
      dx2y2   :    -0.000180
      dxy     :     0.000095
      f0      :     0.000004  f :    -0.000153
      f+1     :     0.000001
      f-1     :    -0.000052
      f+2     :    -0.000038
      f-2     :    -0.000041
      f+3     :    -0.000013
      f-3     :    -0.000014

 10 H s       :    -0.032771  s :    -0.032771
      pz      :    -0.001434  p :     0.004085
      px      :    -0.001942
      py      :     0.007460
      dz2     :    -0.000038  d :     0.001129
      dxz     :     0.000181
      dyz     :     0.000580
      dx2y2   :    -0.000062
      dxy     :     0.000468



                     *******************************
                     * LOEWDIN POPULATION ANALYSIS *
                     *******************************

-------------------------------------------
LOEWDIN ATOMIC CHARGES AND SPIN POPULATIONS
-------------------------------------------
   0 C :   -0.017588   -0.112739
   1 H :    0.013633   -0.007044
   2 C :    0.003918    0.223555
   3 H :   -0.009525    0.013024
   4 H :   -0.007771    0.014073
   5 C :    0.000822   -0.010509
   6 H :    0.015684   -0.000285
   7 H :    0.014218   -0.003816
   8 H :    0.014128   -0.006563
   9 O :    0.140600    0.849967
  10 H :   -0.168120    0.040337

----------------------------------------------------
LOEWDIN REDUCED ORBITAL CHARGES AND SPIN POPULATIONS
----------------------------------------------------
CHARGE
  0 C s       :     2.751438  s :     2.751438
      pz      :     1.016885  p :     2.808340
      px      :     1.028068
      py      :     0.763387
      dz2     :     0.125559  d :     0.415439
      dxz     :     0.110352
      dyz     :     0.024981
      dx2y2   :     0.069579
      dxy     :     0.084969
      f0      :     0.004907  f :     0.042371
      f+1     :     0.013994
      f-1     :     0.000336
      f+2     :     0.005977
      f-2     :     0.007218
      f+3     :     0.004583
      f-3     :     0.005356

  1 H s       :     0.806405  s :     0.806405
      pz      :     0.077757  p :     0.151611
      px      :     0.034889
      py      :     0.038965
      dz2     :     0.011199  d :     0.028351
      dxz     :     0.009416
      dyz     :     0.007526
      dx2y2   :     0.000141
      dxy     :     0.000069

  2 C s       :     2.764874  s :     2.764874
      pz      :     1.015344  p :     2.929781
      px      :     1.034801
      py      :     0.879635
      dz2     :     0.093869  d :     0.274249
      dxz     :     0.090054
      dyz     :     0.009135
      dx2y2   :     0.052803
      dxy     :     0.028387
      f0      :     0.004400  f :     0.027178
      f+1     :     0.008293
      f-1     :     0.000258
      f+2     :     0.005112
      f-2     :     0.003136
      f+3     :     0.003972
      f-3     :     0.002007

  3 H s       :     0.825663  s :     0.825663
      pz      :     0.046625  p :     0.155599
      px      :     0.062634
      py      :     0.046340
      dz2     :     0.005341  d :     0.028263
      dxz     :     0.008169
      dyz     :     0.001860
      dx2y2   :     0.005948
      dxy     :     0.006945

  4 H s       :     0.825313  s :     0.825313
      pz      :     0.074969  p :     0.154121
      px      :     0.033154
      py      :     0.045998
      dz2     :     0.010169  d :     0.028337
      dxz     :     0.009354
      dyz     :     0.008633
      dx2y2   :     0.000089
      dxy     :     0.000091

  5 C s       :     2.698152  s :     2.698152
      pz      :     0.988036  p :     2.967132
      px      :     0.967734
      py      :     1.011363
      dz2     :     0.089957  d :     0.303276
      dxz     :     0.060513
      dyz     :     0.020835
      dx2y2   :     0.041666
      dxy     :     0.090306
      f0      :     0.003957  f :     0.030617
      f+1     :     0.005678
      f-1     :     0.002944
      f+2     :     0.005230
      f-2     :     0.003894
      f+3     :     0.005641
      f-3     :     0.003274

  6 H s       :     0.810906  s :     0.810906
      pz      :     0.066112  p :     0.144163
      px      :     0.037171
      py      :     0.040880
      dz2     :     0.009949  d :     0.029247
      dxz     :     0.008715
      dyz     :     0.008694
      dx2y2   :     0.000784
      dxy     :     0.001105

  7 H s       :     0.807563  s :     0.807563
      pz      :     0.041985  p :     0.148949
      px      :     0.051246
      py      :     0.055718
      dz2     :     0.004296  d :     0.029269
      dxz     :     0.004680
      dyz     :     0.004616
      dx2y2   :     0.008820
      dxy     :     0.006857

  8 H s       :     0.810732  s :     0.810732
      pz      :     0.038341  p :     0.146972
      px      :     0.046577
      py      :     0.062053
      dz2     :     0.002432  d :     0.028168
      dxz     :     0.002280
      dyz     :     0.006979
      dx2y2   :     0.008510
      dxy     :     0.007968

  9 O s       :     3.522271  s :     3.522271
      pz      :     1.597535  p :     4.315044
      px      :     1.679465
      py      :     1.038044
      dz2     :     0.002233  d :     0.020485
      dxz     :     0.010542
      dyz     :     0.002765
      dx2y2   :     0.003480
      dxy     :     0.001465
      f0      :     0.000203  f :     0.001599
      f+1     :     0.000457
      f-1     :     0.000150
      f+2     :     0.000308
      f-2     :     0.000217
      f+3     :     0.000117
      f-3     :     0.000147

 10 H s       :     0.713055  s :     0.713055
      pz      :     0.152697  p :     0.360443
      px      :     0.143172
      py      :     0.064573
      dz2     :     0.030385  d :     0.094622
      dxz     :     0.023790
      dyz     :     0.014582
      dx2y2   :     0.015135
      dxy     :     0.010730


SPIN
  0 C s       :    -0.004281  s :    -0.004281
      pz      :    -0.004393  p :    -0.148209
      px      :    -0.006550
      py      :    -0.137266
      dz2     :     0.005013  d :     0.035004
      dxz     :     0.001977
      dyz     :     0.007876
      dx2y2   :     0.006351
      dxy     :     0.013787
      f0      :     0.000416  f :     0.004747
      f+1     :     0.000178
      f-1     :    -0.000064
      f+2     :     0.000245
      f-2     :     0.001628
      f+3     :     0.000170
      f-3     :     0.002174

  1 H s       :     0.009470  s :     0.009470
      pz      :    -0.001642  p :    -0.014251
      px      :    -0.000431
      py      :    -0.012178
      dz2     :     0.000011  d :    -0.002263
      dxz     :    -0.000152
      dyz     :    -0.002155
      dx2y2   :     0.000033
      dxy     :    -0.000000

  2 C s       :     0.008709  s :     0.008709
      pz      :     0.006866  p :     0.236419
      px      :     0.007656
      py      :     0.221897
      dz2     :    -0.001548  d :    -0.018833
      dxz     :    -0.001537
      dyz     :    -0.003905
      dx2y2   :    -0.001489
      dxy     :    -0.010354
      f0      :    -0.000287  f :    -0.002740
      f+1     :    -0.000071
      f-1     :     0.000134
      f+2     :    -0.000176
      f-2     :    -0.001008
      f+3     :    -0.000227
      f-3     :    -0.001105

  3 H s       :    -0.008170  s :    -0.008170
      pz      :     0.000970  p :     0.017636
      px      :     0.002009
      py      :     0.014657
      dz2     :     0.000109  d :     0.003557
      dxz     :     0.000235
      dyz     :     0.000791
      dx2y2   :     0.000124
      dxy     :     0.002299

  4 H s       :    -0.008605  s :    -0.008605
      pz      :     0.002502  p :     0.019091
      px      :     0.000409
      py      :     0.016181
      dz2     :     0.000235  d :     0.003587
      dxz     :     0.000168
      dyz     :     0.003168
      dx2y2   :     0.000009
      dxy     :     0.000006

  5 C s       :     0.000780  s :     0.000780
      pz      :     0.001845  p :     0.007081
      px      :     0.003677
      py      :     0.001559
      dz2     :    -0.000862  d :    -0.016729
      dxz     :    -0.000935
      dyz     :    -0.002358
      dx2y2   :    -0.000447
      dxy     :    -0.012126
      f0      :    -0.000042  f :    -0.001642
      f+1     :    -0.000077
      f-1     :    -0.000096
      f+2     :    -0.000055
      f-2     :    -0.000841
      f+3     :    -0.000080
      f-3     :    -0.000451

  6 H s       :    -0.000934  s :    -0.000934
      pz      :     0.000166  p :     0.000543
      px      :     0.000277
      py      :     0.000100
      dz2     :     0.000031  d :     0.000107
      dxz     :     0.000054
      dyz     :     0.000032
      dx2y2   :     0.000002
      dxy     :    -0.000012

  7 H s       :    -0.004320  s :    -0.004320
      pz      :     0.000017  p :     0.000396
      px      :     0.000334
      py      :     0.000045
      dz2     :     0.000014  d :     0.000107
      dxz     :    -0.000009
      dyz     :     0.000029
      dx2y2   :     0.000062
      dxy     :     0.000012

  8 H s       :    -0.006840  s :    -0.006840
      pz      :    -0.000030  p :     0.000160
      px      :     0.000135
      py      :     0.000055
      dz2     :     0.000015  d :     0.000118
      dxz     :    -0.000000
      dyz     :     0.000024
      dx2y2   :     0.000037
      dxy     :     0.000042

  9 O s       :     0.010405  s :     0.010405
      pz      :     0.064865  p :     0.840389
      px      :     0.016597
      py      :     0.758926
      dz2     :    -0.000133  d :    -0.000985
      dxz     :    -0.000540
      dyz     :     0.000042
      dx2y2   :    -0.000393
      dxy     :     0.000039
      f0      :     0.000074  f :     0.000157
      f+1     :    -0.000037
      f-1     :     0.000036
      f+2     :    -0.000032
      f-2     :    -0.000007
      f+3     :     0.000079
      f-3     :     0.000044

 10 H s       :    -0.021340  s :    -0.021340
      pz      :     0.002714  p :     0.039221
      px      :     0.000059
      py      :     0.036447
      dz2     :     0.002039  d :     0.022457
      dxz     :     0.002202
      dyz     :     0.009367
      dx2y2   :     0.001265
      dxy     :     0.007584



                      *****************************
                      * MAYER POPULATION ANALYSIS *
                      *****************************

  NA   - Mulliken gross atomic population
  ZA   - Total nuclear charge
  QA   - Mulliken gross atomic charge
  VA   - Mayer's total valence
  BVA  - Mayer's bonded valence
  FA   - Mayer's free valence

  ATOM       NA         ZA         QA         VA         BVA        FA
  0 C      6.0284     6.0000    -0.0284     3.7366     3.6901     0.0466
  1 H      0.8574     1.0000     0.1426     1.0067     1.0059     0.0008
  2 C      6.3099     6.0000    -0.3099     3.9725     3.8757     0.0968
  3 H      0.8880     1.0000     0.1120     1.0058     1.0051     0.0008
  4 H      0.9066     1.0000     0.0934     1.0090     1.0079     0.0011
  5 C      6.2225     6.0000    -0.2225     3.9571     3.9568     0.0003
  6 H      0.9260     1.0000     0.0740     1.0057     1.0057     0.0000
  7 H      0.8941     1.0000     0.1059     0.9985     0.9984     0.0001
  8 H      0.9142     1.0000     0.0858     0.9964     0.9962     0.0002
  9 O      8.2929     8.0000    -0.2929     1.9729     1.1449     0.8280
 10 H      0.7600     1.0000     0.2400     1.0055     1.0040     0.0015

  Mayer bond orders larger than 0.100000
B(  0-C ,  1-H ) :   0.9723 B(  0-C ,  2-C ) :   1.7509 B(  0-C ,  5-C ) :   0.9573 
B(  2-C ,  3-H ) :   1.0008 B(  2-C ,  4-H ) :   1.0137 B(  5-C ,  6-H ) :   0.9998 
B(  5-C ,  7-H ) :   0.9878 B(  5-C ,  8-H ) :   0.9839 B(  9-O , 10-H ) :   0.9891 


-------
TIMINGS
-------

Total SCF time: 0 days 0 hours 0 min 10 sec 

Total time                  ....      10.409 sec
Sum of individual times     ....       9.871 sec  ( 94.8%)

SCF preparation             ....       0.552 sec  (  5.3%)
Fock matrix formation       ....       8.522 sec  ( 81.9%)
  Startup                   ....       0.026 sec  (  0.3% of F)
  Split-RI-J                ....       0.676 sec  (  7.9% of F)
  Chain of spheres X        ....       5.901 sec  ( 69.2% of F)
  XC integration            ....       2.095 sec  ( 24.6% of F)
    XC Preparation          ....       0.000 sec  (  0.0% of XC)
    Basis function eval.    ....       0.434 sec  ( 20.7% of XC)
    Density eval.           ....       0.471 sec  ( 22.5% of XC)
    XC-Functional eval.     ....       0.112 sec  (  5.3% of XC)
    XC-Potential eval.      ....       0.729 sec  ( 34.8% of XC)
Diagonalization             ....       0.000 sec  (  0.0%)
Density matrix formation    ....       0.126 sec  (  1.2%)
Total Energy calculation    ....       0.056 sec  (  0.5%)
Population analysis         ....       0.027 sec  (  0.3%)
Orbital Transformation      ....       0.051 sec  (  0.5%)
Orbital Orthonormalization  ....       0.000 sec  (  0.0%)
DIIS solution               ....       0.350 sec  (  3.4%)
SOSCF solution              ....       0.185 sec  (  1.8%)
Finished LeanSCF after  10.4 sec

Maximum memory used throughout the entire LEANSCF-calculation: 18.3 MB


           ************************************************************
           *        Program running with 8 parallel MPI-processes     *
           *              working on a common directory               *
           ************************************************************

------------------------------------------------------------------------------
                                ORCA  MP2 
------------------------------------------------------------------------------

Freezing NCore=8 chemical core electrons

----------------------
RI-MP2 ENERGY+GRADIENT
----------------------
Dimension of the orbital basis            ...  222
Dimension of the AuxC basis               ...  514
Memory devoted to MP2                     ... 10000 MB   
Data format for matrix containers         ... DOUBLE
Compression type for matrix containers    ... UNCOMPRESSED
Scaling for aa/bb pairs                   ...   5.660e-02
Scaling for ab pairs                      ...   5.935e-01
Overall scaling of the MP2 energy         ...   1.000e+00

-----------------------
SHARK RI TRANSFORMATION
-----------------------

Number of basis functions                ...    222
Number of aux functions                  ...    514
Number of operators                      ...      2
Generation of IJK                        ... YES
Generation of IAK                        ... YES
Generation of ABK                        ... NO
Orbital Range Operator  0:    0-  16 to   17- 221

Orbital Range Operator  1:    0-  15 to   16- 221

Aux basis identifier                     ...   AUXC
Contraction scheme used                  ... SEGMENTED
Do orthogonalization                     ... YES
All operator combinations                ... NO
Transpose (ia|K)                         ... NO
Integral generator used                  ... LIBINT
Starting integral generation + trafo... 
Half trafo (segmented) done. Total time =  0.2 sec. integrals=  0.1 sec trafo=  0.0 sec
Integral generation and half transformation done (  0.2 sec)

Reading or making V^(-1/2)          ... done (  0.0 sec)
Sorting IJK integrals               ... done (  0.0 sec)
Sorting IAK integrals               ... done (  0.1 sec)
Sorting IJK integrals               ... done (  0.1 sec)
Sorting IAK integrals               ... done (  0.1 sec)

SHARK RI integral transformation done. Total time =  0.3 sec.

Opening buffers                              ... done
Frozen core precalculation                   ... done

Starting loop over batches of integrals:

Operator 0  - window                       ... (  4- 16)x( 17-221)
Operator 0  - Memory available             ... 10000 MB
Operator 0  - Memory needed per MO         ...   0.8 MB
Operator 0  - Number of orbitals per batch ... 2
Operator 0  - Number of batches            ... 1

OPERATOR  0   PASS   0:  MOs     4 ...    5 +    6 ...    7 +    8 ...    9 +   10 ...   11
                            +   12 ...   13 +   14 ...   15 +   16 ...   16
  Reading integrals       ... ok
Closing buffer GIPV ( 0.01 GB; CompressionRatio= 1.00)

Operator 1  - window                       ... (  4- 15)x( 16-221)
Operator 1  - Memory available             ... 10000 MB
Operator 1  - Memory needed per MO         ...   0.8 MB
Operator 1  - Number of orbitals per batch ... 2
Operator 1  - Number of batches            ... 1

OPERATOR  1   PASS   0:  MOs     4 ...    5 +    6 ...    7 +    8 ...    9 +   10 ...   11
                            +   12 ...   13 +   14 ...   15
  Reading integrals       ... ok
Closing buffer GIPV ( 0.01 GB; CompressionRatio= 1.00)
Time spent in pair loops =     0.416 sec
Deleting buffers (Ka|jb) ...done

Spin-scaled correlation energy components}
 E2 for alpha/alpha pairs :     -0.005711951 Eh
 E2 for beta/beta   pairs :     -0.004853183 Eh
 E2 for alpha/beta  pairs :     -0.370540366 Eh


-----------------------------------------------
 RI-MP2 CORRELATION ENERGY:     -0.381105500 Eh
-----------------------------------------------


---------------------
MP2 DENSITY FORMATION
---------------------

Completing the external part of the density      ... done
Storing the unrelaxed density                    ... done

Re-sorting 3-index density container for op 0    ... done
Re-sorting 3-index density container for op 1    ... done
Computing external part of the Lagrangian        ... done
Calculating the xc-kernel                        ... done
Calculating G(D)                                 ... done
Completing the Lagrangian                        ... done
Solving the Z-vector equations                   ... Using XC Grid                  ... (opt.grid_cpscf.tmp) 
Recalculating density on grid  ... (opt.grho_cpscf0.tmp) done
Calculating the xc-kernel      ... (opt.fxc_cpscf0.tmp) done

-------------------
SHARK CP-SCF DRIVER
-------------------

Dimension of the orbital basis          ...    222
Dimension of the CPSCF-problem          ...   6781
Number of operators                     ...      2
Max. number of iterations               ...    128
Convergence Tolerance                   ... 1.0e-04
Number of perturbations                 ...      1
Perturbation type                       ... REAL

----------------------------
POPLE LINEAR EQUATION SOLVER
----------------------------

[...]
     32      -0.014288  -0.009364  -0.006924   0.000375  -0.007568  -0.006681
                 24         25         26         27         28         29    
      0       0.013953  -0.364173   0.001525  -0.000386   0.000749   0.006070
      1      -0.011457   0.031812   0.000547  -0.000391   0.001833  -0.000899
      2      -0.002240   0.077897   0.000888  -0.006450   0.008317  -0.000254
      3      -0.061249   0.422130  -0.002304  -0.007272   0.009986  -0.002133
      4       0.009377  -0.027683   0.000144   0.013646  -0.019187  -0.001070
      5      -0.012696   0.178652  -0.005521   0.078074  -0.110247  -0.015620
      6       0.029716   0.295434   0.000069  -0.000989  -0.008482  -0.051926
      7       0.000613   0.004304  -0.000134  -0.000027   0.000339   0.001809
      8      -0.015576  -0.118164   0.000187   0.000147   0.005904   0.041067
      9      -0.110620  -0.037391  -0.002597   0.010446   0.078997   0.469697
     10       0.020231   0.060178   0.000685   0.000633   0.009231   0.054609
     11       0.183438   0.425274   0.001182   0.006660   0.056831   0.328911
     12      -0.201018  -0.447341  -0.001335   0.002682   0.009707   0.079457
     13      -0.010737  -0.037653  -0.000460  -0.000678  -0.012267  -0.079525
     14      -0.037161  -0.224826  -0.001186  -0.012296  -0.119725  -0.792204
     15      -0.006163   0.067874  -0.040010  -0.010979   0.047213  -0.006795
     16      -0.039615  -0.003115   0.017991   0.081993   0.035749  -0.006713
     17      -0.034541   0.011776  -0.027496   0.036851  -0.068753   0.010009
     18       0.424829  -0.240216  -0.097146   0.101274  -0.084233   0.009013
     19       0.344433   0.022980   0.147630  -0.144433   0.148262  -0.019983
     20      -0.050916  -0.040407   0.519774  -0.591534   0.513679  -0.071888
     21      -0.171724   0.135971   0.265419  -0.244734  -0.516809   0.083119
     22       0.447175  -0.081768   0.287139  -0.225229  -0.532595   0.086203
     23       0.477577  -0.013561  -0.181354   0.163835   0.327076  -0.052268
     24      -0.333523   0.119509   0.292973   0.287619   0.037034  -0.011804
     25      -0.172746   0.021775  -0.651062  -0.619551  -0.050419   0.016024
     26       0.056317  -0.064453  -0.018459  -0.006133  -0.015590   0.001972
     27       0.000263   0.004257   0.000337  -0.000280  -0.000305  -0.000032
     28      -0.001915  -0.020423  -0.000291   0.000266   0.000249   0.001007
     29       0.000334   0.004587  -0.000272  -0.000025  -0.000121  -0.000266
     30       0.002227  -0.009926  -0.002615   0.001638  -0.000263   0.000529
     31      -0.006077  -0.026903   0.001240  -0.000636   0.001154  -0.003082
     32       0.002017   0.006011   0.004710  -0.002222  -0.000317  -0.000259
                 30         31         32    
      0       0.008986  -0.001940  -0.000488
      1      -0.014981   0.002547  -0.000297
      2      -0.082737   0.014248   0.000572
      3      -0.070800   0.011723   0.001345
      4       0.162570  -0.024891  -0.002932
      5       0.959885  -0.144863  -0.004883
      6       0.002408   0.052112   0.000674
      7       0.001855   0.011000   0.000094
      8       0.015190   0.082449  -0.000048
      9      -0.086304  -0.668656  -0.002656
     10      -0.008864  -0.074861  -0.000097
     11      -0.058626  -0.442438  -0.001304
     12       0.011914   0.068151  -0.000919
     13      -0.009906  -0.056840  -0.001185
     14      -0.104805  -0.558353  -0.000446
     15       0.006968  -0.001076  -0.000144
     16      -0.002329   0.000900  -0.000160
     17      -0.009882   0.000712  -0.000350
     18      -0.015583   0.000001  -0.001562
     19       0.029234  -0.003601   0.000420
     20       0.106126  -0.015211   0.004145
     21      -0.037276  -0.000172   0.002059
     22      -0.036937  -0.001242   0.002292
     23       0.021855  -0.000628  -0.001782
     24      -0.018354   0.003755   0.002736
     25       0.038360  -0.006556  -0.001671
     26      -0.003472   0.000395   0.000668
     27      -0.000100   0.000030  -0.027389
     28       0.000872  -0.000345   0.021932
     29       0.000372  -0.000200   0.052516
     30      -0.000810  -0.000296   0.433206
     31      -0.004142   0.001324  -0.340619
     32      -0.004261   0.003565  -0.832005


-----------
IR SPECTRUM
-----------

 Mode   freq       eps      Int      T**2         TX        TY        TZ
       cm**-1   L/(mol*cm) km/mol    a.u.
----------------------------------------------------------------------------
  7:    127.61   0.008760   44.27  0.021423  ( 0.134678  0.000662  0.057310)
  8:    190.12   0.001616    8.17  0.002653  ( 0.042918 -0.024046  0.015257)
  9:    258.29   0.006094   30.80  0.007363  (-0.074118 -0.028644 -0.032388)
 10:    280.66   0.001637    8.27  0.001820  ( 0.035152 -0.005400  0.023560)
 11:    429.92   0.000224    1.13  0.000162  ( 0.002428 -0.011789  0.004179)
 12:    604.53   0.002809   14.20  0.001450  ( 0.002898 -0.037101  0.008071)
 13:    713.78   0.020535  103.78  0.008978  ( 0.004816  0.089902 -0.029535)
 14:    927.18   0.005160   26.07  0.001737  ( 0.005895 -0.041213  0.001813)
 15:    935.60   0.001323    6.69  0.000441  ( 0.006963  0.019053 -0.005454)
 16:    954.66   0.000399    2.02  0.000131  ( 0.010096  0.001732 -0.005061)
 17:   1040.69   0.000557    2.82  0.000167  (-0.006415  0.011214 -0.000391)
 18:   1072.40   0.008568   43.30  0.002493  (-0.001934 -0.049000  0.009402)
 19:   1211.22   0.000202    1.02  0.000052  (-0.005619  0.003953 -0.002174)
 20:   1334.65   0.002226   11.25  0.000520  ( 0.007847 -0.020847  0.004925)
 21:   1415.27   0.001136    5.74  0.000251  ( 0.005742  0.014356  0.003385)
 22:   1464.85   0.000915    4.62  0.000195  ( 0.007868 -0.008771  0.007485)
 23:   1495.88   0.002390   12.08  0.000499  (-0.011729 -0.011301  0.015277)
 24:   1509.15   0.002682   13.55  0.000555  (-0.012306  0.016096  0.012004)
 25:   1666.62   0.023557  119.05  0.004411  (-0.031397  0.056317 -0.015925)
 26:   3049.72   0.003331   16.83  0.000341  (-0.014597  0.006669 -0.009125)
 27:   3117.59   0.002258   11.41  0.000226  (-0.001561  0.011350  0.009732)
 28:   3146.45   0.001560    7.88  0.000155  ( 0.007837  0.001245 -0.009579)
 29:   3158.53   0.002732   13.81  0.000270  (-0.005281 -0.010057  0.011871)
 30:   3202.07   0.001680    8.49  0.000164  ( 0.000434 -0.010696 -0.007012)
 31:   3260.58   0.001349    6.82  0.000129  ( 0.004785  0.005198  0.008902)
 32:   3775.22   0.003926   19.84  0.000324  ( 0.003654 -0.017343 -0.003219)

* The epsilon (eps) is given for a Dirac delta lineshape.
** The dipole moment derivative (T) already includes vibrational overlap.

The first frequency considered to be a vibration is 7
The total number of vibrations considered is 26


--------------------------
THERMOCHEMISTRY AT 298.15K
--------------------------

Temperature         ...   298.15 K
Pressure            ...     1.00 atm
Total Mass          ...    59.09 AMU
Quasi RRHO          ...     True
Cut-Off Frequency   ...     1.00 cm^-1

Throughout the following assumptions are being made:
  (1) The electronic state is orbitally nondegenerate
      but the spin degeneracy is treated
  (2) There are no thermally accessible electronically excited states
  (3) Hindered rotations indicated by low frequency modes are not
      treated as such but are treated as vibrations and this may
      cause some error
  (4) All equations used are the standard statistical mechanics
      equations for an ideal gas
  (5) All vibrations are strictly harmonic

freq.     127.61  E(vib)   ...       0.43 
freq.     190.12  E(vib)   ...       0.36 
freq.     258.29  E(vib)   ...       0.30 
freq.     280.66  E(vib)   ...       0.28 
freq.     429.92  E(vib)   ...       0.18 
freq.     604.53  E(vib)   ...       0.10 
freq.     713.78  E(vib)   ...       0.07 
freq.     927.18  E(vib)   ...       0.03 
freq.     935.60  E(vib)   ...       0.03 
freq.     954.66  E(vib)   ...       0.03 
freq.    1040.69  E(vib)   ...       0.02 
freq.    1072.40  E(vib)   ...       0.02 
freq.    1211.22  E(vib)   ...       0.01 
freq.    1334.65  E(vib)   ...       0.01 
freq.    1415.27  E(vib)   ...       0.00 
freq.    1464.85  E(vib)   ...       0.00 
freq.    1495.88  E(vib)   ...       0.00 
freq.    1509.15  E(vib)   ...       0.00 
freq.    1666.62  E(vib)   ...       0.00 
freq.    3049.72  E(vib)   ...       0.00 
freq.    3117.59  E(vib)   ...       0.00 
freq.    3146.45  E(vib)   ...       0.00 
freq.    3158.53  E(vib)   ...       0.00 
freq.    3202.07  E(vib)   ...       0.00 
freq.    3260.58  E(vib)   ...       0.00 
freq.    3775.22  E(vib)   ...       0.00 

------------
INNER ENERGY
------------

The inner energy is: U= E(el) + E(ZPE) + E(vib) + E(rot) + E(trans)
    E(el)   - is the total energy from the electronic structure calculation
              = E(kin-el) + E(nuc-el) + E(el-el) + E(nuc-nuc)
    E(ZPE)  - the the zero temperature vibrational energy from the frequency calculation
    E(vib)  - the the finite temperature correction to E(ZPE) due to population
              of excited vibrational states
    E(rot)  - is the rotational thermal energy
    E(trans)- is the translational thermal energy

Summary of contributions to the inner energy U:
Electronic energy                ...   -193.36268036 Eh
Zero point energy                ...      0.09190866 Eh      57.67 kcal/mol
Thermal vibrational correction   ...      0.00297517 Eh       1.87 kcal/mol
Thermal rotational correction    ...      0.00141627 Eh       0.89 kcal/mol
Thermal translational correction ...      0.00141627 Eh       0.89 kcal/mol
-----------------------------------------------------------------------
Total thermal energy                   -193.26496399 Eh


Summary of corrections to the electronic energy:
(perhaps to be used in another calculation)
Total thermal correction                  0.00580772 Eh       3.64 kcal/mol
Non-thermal (ZPE) correction              0.09190866 Eh      57.67 kcal/mol
-----------------------------------------------------------------------
Total correction                          0.09771637 Eh      61.32 kcal/mol


--------
ENTHALPY
--------

The enthalpy is H = U + kB*T
                kB is Boltzmann's constant
Total thermal energy              ...   -193.26496399 Eh 
Thermal Enthalpy correction       ...      0.00094421 Eh       0.59 kcal/mol
-----------------------------------------------------------------------
Total Enthalpy                    ...   -193.26401978 Eh


Note: Only C1 symmetry has been detected, increase convergence thresholds 
      if your molecule has a higher symmetry. Symmetry factor of 1.0 is   
      used for the rotational entropy correction. 
 

Note: Rotational entropy computed according to Herzberg 
Infrared and Raman Spectra, Chapter V,1, Van Nostrand Reinhold, 1945 
Point Group:  C1, Symmetry Number:   1  
Rotational constants in cm-1:     0.293365     0.213417     0.142615 

Vibrational entropy computed according to the QRRHO of S. Grimme
Chem.Eur.J. 2012 18 9955 using a reference frequency of 100.0 cm-1


-------
ENTROPY
-------

The entropy contributions are T*S = T*(S(el)+S(vib)+S(rot)+S(trans))
     S(el)   - electronic entropy
     S(vib)  - vibrational entropy
     S(rot)  - rotational entropy
     S(trans)- translational entropy
The entropies will be listed as multiplied by the temperature to get
units of energy

Electronic entropy                ...      0.00065446 Eh      0.41 kcal/mol
Vibrational entropy               ...      0.00500960 Eh      3.14 kcal/mol
Rotational entropy                ...      0.01173835 Eh      7.37 kcal/mol
Translational entropy             ...      0.01812608 Eh     11.37 kcal/mol
-----------------------------------------------------------------------
Final entropy term                ...      0.03552848 Eh     22.29 kcal/mol

In case the symmetry of your molecule has not been determined correctly
or in case you have a reason to use a different symmetry number we print 
out the resulting rotational entropy values for sn=1,12:

 non-linear molecules -----------------------------------
|  sn= 1 | S(rot)=       0.01173835 Eh      7.37 kcal/mol|
|  sn= 2 | S(rot)=       0.01108389 Eh      6.96 kcal/mol|
|  sn= 3 | S(rot)=       0.01070106 Eh      6.72 kcal/mol|
|  sn= 4 | S(rot)=       0.01042943 Eh      6.54 kcal/mol|
|  sn= 5 | S(rot)=       0.01021875 Eh      6.41 kcal/mol|
|  sn= 6 | S(rot)=       0.01004660 Eh      6.30 kcal/mol|
|  sn= 7 | S(rot)=       0.00990105 Eh      6.21 kcal/mol|
|  sn= 8 | S(rot)=       0.00977498 Eh      6.13 kcal/mol|
|  sn= 9 | S(rot)=       0.00966377 Eh      6.06 kcal/mol|
|  sn=10 | S(rot)=       0.00956429 Eh      6.00 kcal/mol|
|  sn=11 | S(rot)=       0.00947430 Eh      5.95 kcal/mol|
|  sn=12 | S(rot)=       0.00939214 Eh      5.89 kcal/mol|
 linear molecules ---------------------------------------
|  Dinfh | S(rot)=       0.00716470 Eh      4.50 kcal/mol|
|  Cinfv | S(rot)=       0.00781916 Eh      4.91 kcal/mol|
 --------------------------------------------------------


-------------------
GIBBS FREE ENERGY
-------------------

The Gibbs free energy is G = H - T*S

Total enthalpy                    ...   -193.26401978 Eh 
Total entropy correction          ...     -0.03552848 Eh    -22.29 kcal/mol
-----------------------------------------------------------------------
Final Gibbs free energy         ...   -193.29954826 Eh

For completeness - the Gibbs free energy minus the electronic energy
G-E(el)                           ...      0.06313210 Eh     39.62 kcal/mol



--------------------------------
SUGGESTED CITATIONS FOR THIS RUN
--------------------------------

Below you find a list of papers that are relevant to this ORCA run
We neither can nor want to force you to cite these papers, but we appreciate if you do
You receive ORCA, which is the product of decades of hard work by many enthusiastic individuals, for free
The only thing we kindly ask in return is that you cite our papers,
We deeply appreciate it, if you show your appreciation for ORCA by not just citing the generic ORCA reference.

Please note that relegating all ORCA citations to the supporting information does *not* help us.
SI sections are not indexed - citations you put there will not count into any citation statistics
But we need these citations in order to attract the funding resources that allow us to do what we are doing

Therefore, if you are a happy ORCA user, please consider citing a few of the papers listed below in the main body of your paper

In addition to the list printed below, the program has created the file opt.bibtex that contains the list in bibtex format
You can import this file easily into all common literature databanks and citation aid programs


List of essential papers. We consider these as the minimum necessary citations

  1. Neese, F.
     Software update: the ORCA program system, version 6.0
     WIRES Comput. Molec. Sci. 2025 15(1), e70019
     doi.org/10.1002/wcms.7019

List of papers to cite with high priority. The work reported in these papers was absolutely
necessary for this run to complete.
Our perspective: the developers of density functionals and basis sets usually get cited in chemistry papers
Good! But without the algorithms to do something with them, the functionals or basis sets would not do anything.
Hence, in our opinion, the algorithm design and method developments papers are equally worthy of getting cited

  1. Neese, F.
     An improvement of the resolution of the identity approximation for the formation of the Coulomb matrix
     J. Comp. Chem. 2003 24(14), 1740-1747
     doi.org/10.1002/jcc.10318
  2. Neese, F.; Schwabe, T.; Grimme, S.
     Analytic derivatives for perturbatively corrected 'double hybrid' density functionals: Theory, implementation, and applications
     J. Chem. Phys. 2007 126(12), Art. No. 124115
     doi.org/10.1063/1.2712433
  3. Neese, F.; Wennmohs, F.; Hansen, A.; Becker, U.
     Efficient, approximate and parallel Hartree-Fock and hybrid DFT calculations. A 'chain-of-spheres' algorithm for the Hartree-Fock exchange
     Chem. Phys. 2009 356(1-3), 98-109
     doi.org/10.1016/j.chemphys.2008.10.036
  4. Kossmann, S.; Neese, F.
     Efficient Structure Optimization with Second-Order Many-Body Perturbation Theory: The RIJCOSX-MP2 Method
     J. Theo. Comp. Chem. 2010 6 , 2325-2338
     doi.org/10.1021/ct100199k
  5. Caldeweyher, E.; Bannwarth, C.; Grimme, S.
     Extension of the D3 dispersion coefficient model
     J. Chem. Phys. 2017 147 , 034112
     doi.org/10.1063/1.4993215
  6. Caldeweyher, E.; Ehlert, S.; Hansen, A.; Neugebauer, H.; Spicher, S.; Bannwarth, C.; Grimme, S.
     A generally applicable atomic-charge dependent London dispersion correction
     J. Chem. Phys. 2019 150 , 154122
     doi.org/10.1063/1.5090222
  7. Caldeweyher, E.; Mewes, J.; Ehlert, S.; Grimme, S.
     Extension and evaluation of the D4 London-dispersion model for periodic systems
     Phys. Chem. Chem. Phys. 2020 22(16), 8499-8512
     doi.org/10.1039/D0CP00502A
  8. Helmich-Paris, B.; de Souza, B.; Neese, F.; Izsák, R.
     An improved chain of spheres for exchange algorithm
     J. Chem. Phys. 2021 155(10), 104109
     doi.org/10.1063/5.0058766
  9. Neese, F.
     The SHARK Integral Generation and Digestion System
     J. Comp. Chem. 2022 44(3), 381
     doi.org/10.1002/jcc.26942
 10. Wittmann, L.; Gordiy, I.; Friede, M.; Helmich-Paris, B.; Grimme, S.; Hansen, A.; Bursch, M.
     Extension of the D3 and D4 London Dispersion Corrections to the full Actinides Series
     Phys. Chem. Chem. Phys. 2024 26(32), 21379-21394
     doi.org/10.1039/D4CP01514B

List of suggested additional citations. These are papers that are important in the 'surrounding' of 
of this run, or papers that preceded the highly important papers. If you like your results we are grateful for a citation.

  1. Izsak, R.; Neese, F.
     An overlap fitted chain of spheres exchange method
     J. Chem. Phys. 2011 135 , 144105
     doi.org/10.1063/1.3646921
  2. Izsak, R.; Hansen, A.; Neese, F.
     The resolution of identity and chain of spheres approximations for the LPNO-CCSD singles Fock term
     Molec. Phys. 2012 110 , 2413-2417
     doi.org/10.1080/00268976.2012.687466
  3. Neese, F.
     The ORCA program system
     WIRES Comput. Molec. Sci. 2012 2(1), 73-78
     doi.org/10.1002/wcms.81
  4. Izsak, R.; Neese, F.; Klopper, W.
     Robust fitting techniques in the chain of spheres approximation to the Fock exchange: The role of the complementary space
     J. Chem. Phys. 2013 139 , 
     doi.org/10.1063/1.4819264
  5. Neese, F.
     Software update: the ORCA program system, version 4.0
     WIRES Comput. Molec. Sci. 2018 8(1), 1-6
     doi.org/10.1002/wcms.1327
  6. Neese, F.; Wennmohs, F.; Becker, U.; Riplinger, C.
     The ORCA quantum chemistry program package
     J. Chem. Phys. 2020 152(22), 224108
     doi.org/10.1063/5.0004608
  7. Neese, F.
     Software update: The ORCA program system—Version 5.0
     WIRES Comput. Molec. Sci. 2022 12(1), e1606
     doi.org/10.1002/wcms.1606

List of optional additional citations

  1. Neese, F.
     Approximate second-order SCF convergence for spin unrestricted wavefunctions
     Chem. Phys. Lett. 2000 325(1-3), 93-98
     doi.org/10.1016/s0009-2614(00)00662-x

Timings for individual modules:

Sum of individual times          ...     1629.997 sec (=  27.167 min)
Startup calculation              ...       41.772 sec (=   0.696 min)   2.6 %
SCF iterations                   ...      226.952 sec (=   3.783 min)  13.9 %
Property calculations            ...        1.942 sec (=   0.032 min)   0.1 %
MP2 module                       ...      239.515 sec (=   3.992 min)  14.7 %
Geometry relaxation              ...        0.217 sec (=   0.004 min)   0.0 %
Numerical frequency calculation  ...     1119.599 sec (=  18.660 min)  68.7 %
                             ****ORCA TERMINATED NORMALLY****
TOTAL RUN TIME: 0 days 0 hours 26 minutes 56 seconds 718 msec
