11
* (null), Energy   -1000.0000000
C     0.019584   -0.062377   -0.028114    0.001316    0.024952   -0.026082
H    -0.058489    0.125771    1.035804    0.041640   -0.137650   -0.037094
C     1.240837   -0.025446   -0.597890   -0.001874   -0.033042   -0.049812
H     2.135792    0.076458   -0.000179    0.072564   -0.169364   -0.131004
H     1.358348   -0.133570   -1.670376   -0.137448    0.191484   -0.025920
C    -1.262547   -0.083828   -0.799264   -0.007832    0.051502    0.000822
H    -1.092849   -0.362207   -1.840419    0.058280    0.203618   -0.014986
H    -1.962688   -0.789466   -0.354036    0.041742    0.001576   -0.062954
H    -1.723558    0.907702   -0.779676   -0.145956   -0.035918    0.154350
O     0.255302   -2.097931    0.464985   -0.071628   -0.110226    0.012824
H     0.675150   -2.435109   -0.339474    1.306032    1.178466    0.808610
11
* Frequency(6) -592.3800
C     0.019734   -0.059541   -0.031078    0.001316    0.024952   -0.026082
H    -0.053757    0.110128    1.031588    0.041640   -0.137650   -0.037094
C     1.240624   -0.029201   -0.603551   -0.001874   -0.033042   -0.049812
H     2.144039    0.057211   -0.015067    0.072564   -0.169364   -0.131004
H     1.342728   -0.111809   -1.673322   -0.137448    0.191484   -0.025920
C    -1.263437   -0.077975   -0.799171   -0.007832    0.051502    0.000822
H    -1.086226   -0.339067   -1.842122    0.058280    0.203618   -0.014986
H    -1.957944   -0.789287   -0.361190    0.041742    0.001576   -0.062954
H    -1.740145    0.903620   -0.762135   -0.145956   -0.035918    0.154350
O     0.247162   -2.110458    0.466442   -0.071628   -0.110226    0.012824
H     0.823574   -2.301182   -0.247580    1.306032    1.178466    0.808610
11
* Frequency(6) -592.3800
C     0.019867   -0.057013   -0.033721    0.001316    0.024952   -0.026082
H    -0.049537    0.096180    1.027830    0.041640   -0.137650   -0.037094
C     1.240434   -0.032549   -0.608598   -0.001874   -0.033042   -0.049812
H     2.151391    0.040049   -0.028342    0.072564   -0.169364   -0.131004
H     1.328800   -0.092406   -1.675948   -0.137448    0.191484   -0.025920
C    -1.264231   -0.072756   -0.799087   -0.007832    0.051502    0.000822
H    -1.080320   -0.318434   -1.843641    0.058280    0.203618   -0.014986
H    -1.953715   -0.789127   -0.367570    0.041742    0.001576   -0.062954
H    -1.754935    0.899981   -0.746495   -0.145956   -0.035918    0.154350
O     0.239904   -2.121627    0.467742   -0.071628   -0.110226    0.012824
H     0.955914   -2.181769   -0.165644    1.306032    1.178466    0.808610
11
* Frequency(6) -592.3800
C     0.019970   -0.055066   -0.035756    0.001316    0.024952   -0.026082
H    -0.046288    0.085438    1.024935    0.041640   -0.137650   -0.037094
C     1.240288   -0.035128   -0.612485   -0.001874   -0.033042   -0.049812
H     2.157054    0.026833   -0.038564    0.072564   -0.169364   -0.131004
H     1.318075   -0.077464   -1.677971   -0.137448    0.191484   -0.025920
C    -1.264842   -0.068737   -0.799023   -0.007832    0.051502    0.000822
H    -1.075772   -0.302545   -1.844810    0.058280    0.203618   -0.014986
H    -1.950457   -0.789004   -0.372482    0.041742    0.001576   -0.062954
H    -1.766324    0.897178   -0.734450   -0.145956   -0.035918    0.154350
O     0.234314   -2.130228    0.468743   -0.071628   -0.110226    0.012824
H     1.057828   -2.089809   -0.102545    1.306032    1.178466    0.808610
11
* Frequency(6) -592.3800
C     0.020031   -0.053911   -0.036963    0.001316    0.024952   -0.026082
H    -0.044361    0.079068    1.023218    0.041640   -0.137650   -0.037094
C     1.240201   -0.036657   -0.614791   -0.001874   -0.033042   -0.049812
H     2.160412    0.018994   -0.044627    0.072564   -0.169364   -0.131004
H     1.311713   -0.068601   -1.679170   -0.137448    0.191484   -0.025920
C    -1.265204   -0.066354   -0.798985   -0.007832    0.051502    0.000822
H    -1.073075   -0.293121   -1.845504    0.058280    0.203618   -0.014986
H    -1.948525   -0.788931   -0.375396    0.041742    0.001576   -0.062954
H    -1.773079    0.895515   -0.727307   -0.145956   -0.035918    0.154350
O     0.230999   -2.135330    0.469336   -0.071628   -0.110226    0.012824
H     1.118274   -2.035267   -0.065121    1.306032    1.178466    0.808610
11
* Frequency(6) -592.3800
C     0.020043   -0.053674   -0.037212    0.001316    0.024952   -0.026082
H    -0.043965    0.077758    1.022865    0.041640   -0.137650   -0.037094
C     1.240183   -0.036971   -0.615265   -0.001874   -0.033042   -0.049812
H     2.161103    0.017383   -0.045874    0.072564   -0.169364   -0.131004
H     1.310406   -0.066780   -1.679417   -0.137448    0.191484   -0.025920
C    -1.265279   -0.065864   -0.798977   -0.007832    0.051502    0.000822
H    -1.072521   -0.291184   -1.845646    0.058280    0.203618   -0.014986
H    -1.948128   -0.788916   -0.375995    0.041742    0.001576   -0.062954
H    -1.774468    0.895174   -0.725838   -0.145956   -0.035918    0.154350
O     0.230318   -2.136378    0.469458   -0.071628   -0.110226    0.012824
H     1.130700   -2.024055   -0.057427    1.306032    1.178466    0.808610
11
* Frequency(6) -592.3800
C     0.020006   -0.054379   -0.036474    0.001316    0.024952   -0.026082
H    -0.045143    0.081651    1.023915    0.041640   -0.137650   -0.037094
C     1.240236   -0.036037   -0.613856   -0.001874   -0.033042   -0.049812
H     2.159050    0.022173   -0.042168    0.072564   -0.169364   -0.131004
H     1.314293   -0.072195   -1.678684   -0.137448    0.191484   -0.025920
C    -1.265057   -0.067321   -0.799001   -0.007832    0.051502    0.000822
H    -1.074169   -0.296943   -1.845222    0.058280    0.203618   -0.014986
H    -1.949309   -0.788961   -0.374214    0.041742    0.001576   -0.062954
H    -1.770340    0.896190   -0.730204   -0.145956   -0.035918    0.154350
O     0.232344   -2.133261    0.469095   -0.071628   -0.110226    0.012824
H     1.093760   -2.057386   -0.080298    1.306032    1.178466    0.808610
11
* Frequency(6) -592.3800
C     0.019923   -0.055952   -0.034830    0.001316    0.024952   -0.026082
H    -0.047767    0.090326    1.026252    0.041640   -0.137650   -0.037094
C     1.240354   -0.033954   -0.610717   -0.001874   -0.033042   -0.049812
H     2.154477    0.032846   -0.033913    0.072564   -0.169364   -0.131004
H     1.322955   -0.084262   -1.677050   -0.137448    0.191484   -0.025920
C    -1.264564   -0.070566   -0.799052   -0.007832    0.051502    0.000822
H    -1.077842   -0.309775   -1.844278    0.058280    0.203618   -0.014986
H    -1.951939   -0.789060   -0.370247    0.041742    0.001576   -0.062954
H    -1.761142    0.898453   -0.739930   -0.145956   -0.035918    0.154350
O     0.236858   -2.126315    0.468287   -0.071628   -0.110226    0.012824
H     1.011458   -2.131650   -0.131254    1.306032    1.178466    0.808610
11
* Frequency(6) -592.3800
C     0.019803   -0.058220   -0.032459    0.001316    0.024952   -0.026082
H    -0.051553    0.102841    1.029625    0.041640   -0.137650   -0.037094
C     1.240525   -0.030950   -0.606188   -0.001874   -0.033042   -0.049812
H     2.147880    0.048245   -0.022002    0.072564   -0.169364   -0.131004
H     1.335452   -0.101672   -1.674694   -0.137448    0.191484   -0.025920
C    -1.263852   -0.075249   -0.799127   -0.007832    0.051502    0.000822
H    -1.083141   -0.328288   -1.842915    0.058280    0.203618   -0.014986
H    -1.955735   -0.789203   -0.364523    0.041742    0.001576   -0.062954
H    -1.747872    0.901719   -0.753964   -0.145956   -0.035918    0.154350
O     0.243370   -2.116293    0.467121   -0.071628   -0.110226    0.012824
H     0.892711   -2.238798   -0.204774    1.306032    1.178466    0.808610
11
* Frequency(6) -592.3800
C     0.019660   -0.060940   -0.029617    0.001316    0.024952   -0.026082
H    -0.056090    0.117841    1.033667    0.041640   -0.137650   -0.037094
C     1.240729   -0.027349   -0.600760   -0.001874   -0.033042   -0.049812
H     2.139972    0.066701   -0.007726    0.072564   -0.169364   -0.131004
H     1.350430   -0.122539   -1.671869   -0.137448    0.191484   -0.025920
C    -1.262998   -0.080861   -0.799217   -0.007832    0.051502    0.000822
H    -1.089492   -0.350477   -1.841282    0.058280    0.203618   -0.014986
H    -1.960283   -0.789375   -0.357663    0.041742    0.001576   -0.062954
H    -1.731966    0.905633   -0.770784   -0.145956   -0.035918    0.154350
O     0.251176   -2.104281    0.465724   -0.071628   -0.110226    0.012824
H     0.750388   -2.367220   -0.292892    1.306032    1.178466    0.808610
11
* Frequency(6) -592.3800
C     0.019508   -0.063814   -0.026611    0.001316    0.024952   -0.026082
H    -0.060888    0.133701    1.037941    0.041640   -0.137650   -0.037094
C     1.240945   -0.023543   -0.595020   -0.001874   -0.033042   -0.049812
H     2.131612    0.086215    0.007368    0.072564   -0.169364   -0.131004
H     1.366266   -0.144601   -1.668883   -0.137448    0.191484   -0.025920
C    -1.262096   -0.086795   -0.799311   -0.007832    0.051502    0.000822
H    -1.096206   -0.373937   -1.839556    0.058280    0.203618   -0.014986
H    -1.965093   -0.789557   -0.350409    0.041742    0.001576   -0.062954
H    -1.715150    0.909771   -0.788568   -0.145956   -0.035918    0.154350
O     0.259428   -2.091581    0.464246   -0.071628   -0.110226    0.012824
H     0.599912   -2.502998   -0.386056    1.306032    1.178466    0.808610
11
* Frequency(6) -592.3800
C     0.019365   -0.066534   -0.023769    0.001316    0.024952   -0.026082
H    -0.065425    0.148701    1.041983    0.041640   -0.137650   -0.037094
C     1.241149   -0.019942   -0.589592   -0.001874   -0.033042   -0.049812
H     2.123704    0.104671    0.021644    0.072564   -0.169364   -0.131004
H     1.381244   -0.165468   -1.666058   -0.137448    0.191484   -0.025920
C    -1.261242   -0.092407   -0.799401   -0.007832    0.051502    0.000822
H    -1.102557   -0.396126   -1.837923    0.058280    0.203618   -0.014986
H    -1.969641   -0.789729   -0.343549    0.041742    0.001576   -0.062954
H    -1.699244    0.913685   -0.805388   -0.145956   -0.035918    0.154350
O     0.267234   -2.079569    0.462849   -0.071628   -0.110226    0.012824
H     0.457589   -2.631420   -0.474174    1.306032    1.178466    0.808610
11
* Frequency(6) -592.3800
C     0.019245   -0.068802   -0.021398    0.001316    0.024952   -0.026082
H    -0.069211    0.161216    1.045356    0.041640   -0.137650   -0.037094
C     1.241320   -0.016938   -0.585063   -0.001874   -0.033042   -0.049812
H     2.117107    0.120070    0.033555    0.072564   -0.169364   -0.131004
H     1.393741   -0.182878   -1.663702   -0.137448    0.191484   -0.025920
C    -1.260530   -0.097090   -0.799476   -0.007832    0.051502    0.000822
H    -1.107856   -0.414639   -1.836560    0.058280    0.203618   -0.014986
H    -1.973437   -0.789872   -0.337825    0.041742    0.001576   -0.062954
H    -1.685974    0.916951   -0.819422   -0.145956   -0.035918    0.154350
O     0.273746   -2.069547    0.461683   -0.071628   -0.110226    0.012824
H     0.338842   -2.738568   -0.547694    1.306032    1.178466    0.808610
11
* Frequency(6) -592.3800
C     0.019162   -0.070375   -0.019754    0.001316    0.024952   -0.026082
H    -0.071835    0.169891    1.047693    0.041640   -0.137650   -0.037094
C     1.241438   -0.014855   -0.581924   -0.001874   -0.033042   -0.049812
H     2.112534    0.130743    0.041810    0.072564   -0.169364   -0.131004
H     1.402403   -0.194945   -1.662068   -0.137448    0.191484   -0.025920
C    -1.260037   -0.100335   -0.799527   -0.007832    0.051502    0.000822
H    -1.111529   -0.427471   -1.835616    0.058280    0.203618   -0.014986
H    -1.976067   -0.789971   -0.333858    0.041742    0.001576   -0.062954
H    -1.676776    0.919214   -0.829148   -0.145956   -0.035918    0.154350
O     0.278260   -2.062601    0.460875   -0.071628   -0.110226    0.012824
H     0.256540   -2.812832   -0.598650    1.306032    1.178466    0.808610
11
* Frequency(6) -592.3800
C     0.019125   -0.071080   -0.019016    0.001316    0.024952   -0.026082
H    -0.073013    0.173784    1.048743    0.041640   -0.137650   -0.037094
C     1.241491   -0.013921   -0.580515   -0.001874   -0.033042   -0.049812
H     2.110481    0.135533    0.045516    0.072564   -0.169364   -0.131004
H     1.406290   -0.200360   -1.661335   -0.137448    0.191484   -0.025920
C    -1.259815   -0.101792   -0.799551   -0.007832    0.051502    0.000822
H    -1.113177   -0.433230   -1.835192    0.058280    0.203618   -0.014986
H    -1.977248   -0.790016   -0.332077    0.041742    0.001576   -0.062954
H    -1.672648    0.920230   -0.833514   -0.145956   -0.035918    0.154350
O     0.280286   -2.059484    0.460512   -0.071628   -0.110226    0.012824
H     0.219600   -2.846163   -0.621521    1.306032    1.178466    0.808610
11
* Frequency(6) -592.3800
C     0.019137   -0.070843   -0.019265    0.001316    0.024952   -0.026082
H    -0.072617    0.172474    1.048390    0.041640   -0.137650   -0.037094
C     1.241473   -0.014235   -0.580989   -0.001874   -0.033042   -0.049812
H     2.111172    0.133922    0.044269    0.072564   -0.169364   -0.131004
H     1.404983   -0.198539   -1.661582   -0.137448    0.191484   -0.025920
C    -1.259890   -0.101302   -0.799543   -0.007832    0.051502    0.000822
H    -1.112623   -0.431293   -1.835334    0.058280    0.203618   -0.014986
H    -1.976851   -0.790001   -0.332676    0.041742    0.001576   -0.062954
H    -1.674037    0.919889   -0.832045   -0.145956   -0.035918    0.154350
O     0.279605   -2.060532    0.460634   -0.071628   -0.110226    0.012824
H     0.232026   -2.834951   -0.613827    1.306032    1.178466    0.808610
11
* Frequency(6) -592.3800
C     0.019198   -0.069688   -0.020472    0.001316    0.024952   -0.026082
H    -0.070690    0.166104    1.046673    0.041640   -0.137650   -0.037094
C     1.241386   -0.015764   -0.583295   -0.001874   -0.033042   -0.049812
H     2.114530    0.126083    0.038206    0.072564   -0.169364   -0.131004
H     1.398621   -0.189676   -1.662781   -0.137448    0.191484   -0.025920
C    -1.260252   -0.098919   -0.799505   -0.007832    0.051502    0.000822
H    -1.109926   -0.421869   -1.836028    0.058280    0.203618   -0.014986
H    -1.974919   -0.789928   -0.335590    0.041742    0.001576   -0.062954
H    -1.680792    0.918226   -0.824902   -0.145956   -0.035918    0.154350
O     0.276290   -2.065634    0.461227   -0.071628   -0.110226    0.012824
H     0.292472   -2.780409   -0.576403    1.306032    1.178466    0.808610
11
* Frequency(6) -592.3800
C     0.019301   -0.067741   -0.022507    0.001316    0.024952   -0.026082
H    -0.067441    0.155362    1.043778    0.041640   -0.137650   -0.037094
C     1.241240   -0.018343   -0.587182   -0.001874   -0.033042   -0.049812
H     2.120193    0.112867    0.027984    0.072564   -0.169364   -0.131004
H     1.387896   -0.174734   -1.664804   -0.137448    0.191484   -0.025920
C    -1.260863   -0.094900   -0.799441   -0.007832    0.051502    0.000822
H    -1.105378   -0.405980   -1.837197    0.058280    0.203618   -0.014986
H    -1.971661   -0.789805   -0.340502    0.041742    0.001576   -0.062954
H    -1.692181    0.915423   -0.812857   -0.145956   -0.035918    0.154350
O     0.270700   -2.074235    0.462228   -0.071628   -0.110226    0.012824
H     0.394386   -2.688449   -0.513304    1.306032    1.178466    0.808610
11
* Frequency(6) -592.3800
C     0.019434   -0.065213   -0.025150    0.001316    0.024952   -0.026082
H    -0.063221    0.141414    1.040020    0.041640   -0.137650   -0.037094
C     1.241050   -0.021691   -0.592229   -0.001874   -0.033042   -0.049812
H     2.127545    0.095705    0.014709    0.072564   -0.169364   -0.131004
H     1.373968   -0.155331   -1.667430   -0.137448    0.191484   -0.025920
C    -1.261657   -0.089681   -0.799357   -0.007832    0.051502    0.000822
H    -1.099472   -0.385347   -1.838716    0.058280    0.203618   -0.014986
H    -1.967432   -0.789645   -0.346882    0.041742    0.001576   -0.062954
H    -1.706971    0.911784   -0.797217   -0.145956   -0.035918    0.154350
O     0.263442   -2.085404    0.463528   -0.071628   -0.110226    0.012824
H     0.526726   -2.569036   -0.431368    1.306032    1.178466    0.808610
11
* Frequency(6) -592.3800
C     0.019584   -0.062377   -0.028114    0.001316    0.024952   -0.026082
H    -0.058489    0.125771    1.035804    0.041640   -0.137650   -0.037094
C     1.240837   -0.025446   -0.597890   -0.001874   -0.033042   -0.049812
H     2.135792    0.076458   -0.000179    0.072564   -0.169364   -0.131004
H     1.358348   -0.133570   -1.670376   -0.137448    0.191484   -0.025920
C    -1.262547   -0.083828   -0.799264   -0.007832    0.051502    0.000822
H    -1.092849   -0.362207   -1.840419    0.058280    0.203618   -0.014986
H    -1.962688   -0.789466   -0.354036    0.041742    0.001576   -0.062954
H    -1.723558    0.907702   -0.779676   -0.145956   -0.035918    0.154350
O     0.255302   -2.097931    0.464985   -0.071628   -0.110226    0.012824
H     0.675150   -2.435109   -0.339474    1.306032    1.178466    0.808610
