
                                 *****************
                                 * O   R   C   A *
                                 *****************

                                            #,                                       
                                            ###                                      
                                            ####                                     
                                            #####                                    
                                            ######                                   
                                           ########,                                 
                                     ,,################,,,,,                         
                               ,,#################################,,                 
                          ,,##########################################,,             
                       ,#########################################, ''#####,          
                    ,#############################################,,   '####,        
                  ,##################################################,,,,####,       
                ,###########''''           ''''###############################       
              ,#####''   ,,,,##########,,,,          '''####'''          '####       
            ,##' ,,,,###########################,,,                        '##       
           ' ,,###''''                  '''############,,,                           
         ,,##''                                '''############,,,,        ,,,,,,###''
      ,#''                                            '''#######################'''  
     '                                                          ''''####''''         
             ,#######,   #######,   ,#######,      ##                                
            ,#'     '#,  ##    ##  ,#'     '#,    #''#        ,####,    ,#,          
            ##       ##  ##   ,#'  ##            #'  '#       #'       ,# #          
            ##       ##  #######   ##           ,######,      #####,      #          
            '#,     ,#'  ##    ##  '#,     ,#' ,#      #,     #,   #      #          
             '#######'   ##     ##  '#######'  #'      '#     '####' #    #          



                #########################################################
                #                        -***-                          #
                #          Department of theory and spectroscopy        #
                #                                                       #
                #                      Frank Neese                      #
                #                                                       #
                #     Directorship, Architecture, Infrastructure        #
                #                    SHARK, DRIVERS                     #
                #        Core code/Algorithms in most modules           #
                #                                                       #
                #        Max Planck Institute fuer Kohlenforschung      #
                #                Kaiser Wilhelm Platz 1                 #
                #                 D-45470 Muelheim/Ruhr                 #
                #                      Germany                          #
                #                                                       #
                #                  All rights reserved                  #
                #                        -***-                          #
                #########################################################


                         Program Version 6.1.0  -  RELEASE   -
                                (GIT: $679e74b$)
                          ($2025-06-10 18:02:51 +0200$)


 With contributions from (in alphabetic order):
[Max-Planck-Institut fuer Kohlenforschung]                               
  Daniel Aravena         : Magnetic Suceptibility                        
  Michael Atanasov       : Ab Initio Ligand Field Theory (pilot matlab implementation)
  Alexander A. Auer      : GIAO ZORA, VPT2 properties, NMR spectrum      
  Ute Becker             : All parallelization in ORCA, NUMFREQ, NUMCALC 
  Giovanni Bistoni       : ED, misc. LED, open-shell LED, HFLD           
  Dmytro Bykov           : pre 5.0 version of the SCF Hessian            
  Marcos Casanova-Páez   : Triplet and SCS-CIS(D). UHF-(DLPNO)-IP/EA/STEOM-CCSD. UHF-CVS-IP/STEOM-CCSD   
  Vijay G. Chilkuri      : MRCI spin determinant printing, contributions to CSF-ICE 
  Pauline Colinet        : FMM embedding                                 
  Dipayan Datta          : RHF DLPNO-CCSD density                        
  Achintya Kumar Dutta   : EOM-CC, STEOM-CC                              
  Nicolas Foglia         : Exact transition moments, OPA infrastructure, MCD improvements    
  Dmitry Ganyushin       : Spin-Orbit,Spin-Spin,Magnetic field MRCI      
  Miquel Garcia-Rates    : C-PCM and meta-GGA Hessian, CCSD/C-PCM, Gaussian charge scheme 
  Tiago L. C. Gouveia    : GS-ROHF, GS-ROCIS                             
  Yang Guo               : DLPNO-NEVPT2, F12-NEVPT2, CIM, IAO-localization        
  Andreas Hansen         : Spin unrestricted coupled pair/coupled cluster methods 
  Ingolf Harden          : AUTO-CI MPn and infrastructure                
  Benjamin Helmich-Paris : MC-RPA, TRAH-(SCF,CASSCF), AVAS, COSX integrals, SCF dyn. polar., MC-PDFT, srDFT 
  Lee Huntington         : MR-EOM, pCC                                   
  Robert Izsak           : Overlap fitted RIJCOSX, COSX-SCS-MP3, EOM     
  Riya Kayal             : Wick's Theorem for AUTO-CI, AUTO-CI UHF-CCSDT 
  Emily Kempfer          : AUTO-CI RHF CISDT and CCSDT, approximate NEVPT4
  Christian Kollmar      : KDIIS, OOCD, Brueckner-CCSD(T), CCSD density, CASPT2, CASPT2-K, improved NEVPT2 
  Axel Koslowski         : Symmetry handling                             
  Simone Kossmann        : meta-GGA functionals, TD-DFT gradient, OOMP2, (MP2 Hessian; deprecated post 5.0) 
  Lucas Lang             : DCDCAS, Hyperfine gauge corrections, ICE-SOC+SSC
  Marvin Lechner         : AUTO-CI (C++ implementation), FIC-MRCC        
  Spencer Leger          : CASSCF response                               
  Dagmar Lenk            : GEPOL surface, SMD, ORCA-2-JSON               
  Dimitrios Liakos       : Extrapolation schemes; Compound Job, Property file
  Dimitrios Manganas     : Further ROCIS development; embedding schemes. LFT, Crystal Embedding 
  Dimitrios Pantazis     : SARC Basis sets                               
  Anastasios Papadopoulos: AUTO-CI, single reference methods and gradients 
  Taras Petrenko         : pre 6.0 DFT Hessian and TD-DFT gradient,  ECA, NRVS 
  Petra Pikulova         : Analytic Raman intensities                    
  Peter Pinski           : DLPNO-MP2, DLPNO-MP2 Gradient                 
  Shashank Vittal Rao    : ES-AILFT, MagRelax                            
  Christoph Reimann      : Effective Core Potentials                     
  Marius Retegan         : Local ZFS, SOC                                
  Christoph Riplinger    : Optimizer, TS searches, QM/MM, DLPNO-CCSD(T), (RO)-DLPNO pert. Triples 
  Michael Roemelt        : Original ROCIS implementation, recursive CI coupling coefficients
  Masaaki Saitow         : Open-shell DLPNO-CCSD energy and density      
  Barbara Sandhoefer     : DKH picture change effects                    
  Yorick L. A. Schmerwitz: GMF and freeze-and-release deltaSCF, NEB S-IDPP initial path                    
  Kantharuban Sivalingam : CASSCF convergence/infrastructure, NEVPT2, NEVPT3, NEVPT4(SD), FIC-MRCI and CEPA variants
  Bernardo de Souza      : ESD, SOC TD-DFT                               
  Georgi L. Stoychev     : AutoAux, RI-MP2 NMR, DLPNO-MP2 response, X2C  
  Van Anh Tran           : RI-MP2 g-tensors                              
  Willem Van den Heuvel  : Paramagnetic NMR                              
  Zikuan Wang            : NOTCH, Electric field optimization            
  Frank Wennmohs         : Technical directorship and infrastructure     
  Hang Xu                : AUTO-CI-Response properties                   
                                                                         
[FACCTs GmbH]                                                            
  Markus Bursch, Nicolas Foglia, Miquel Garcia-Rates, Ingolf Harden, Hagen Neugebauer, Anastasios Papadopoulos, 
  Christoph Riplinger, Bernardo de Souza, Georgi L. Stoychev                                                    
                                                                 
  APM, various basis sets, CI-OPT, improved COSX, DLPNO-Multilevel,           
  DOCKER, DRACO, updates on ESD, Fragmentator, GOAT, IRC, LR-CPCM, L-BFGS, MBIS, meta-GGA TD-DFT gradient, ML-optimized integration grids, 
  MM, NACMEs, nearIR, NEB, NEB-TS, NL-DFT gradient (VV10), 2- and 3-layer-ONIOM, interface openCOSMO-RS, QMMM,   
  Crystal-QMMM, RESP, rigid body optimization, SF, symmetry and pop. for TD-DFT, various functionals, SOLVATOR                                   
                                                                         
[Other institutions]                                                     
  V. Asgeirsson          : NEB                                           
  Christoph Bannwarth    : sTDA-DFT, sTD-DFT, PBEh-3c, B97-3c, D3        
  Giovanni Bistoni       : ETS/NOCV, ADLD/ADEX, COVALED                  
  Martin Brehm           : Molecular dynamics                            
  Ronald Cardenas        : ETS/NOCV                                      
  Martina Colucci        : COVALED                                       
  Sebastian Ehlert       : rSCAN, r2SCAN, r2SCAN-3c, D4, dhf basis sets  
  Marvin Friede          : D4 for Fr, Ra, Ac-Lr                          
  Lars Goerigk           : TD-DFT with DH, B97 family of functionals     
  Stefan Grimme          : VdW corrections, initial TS optimization, DFT functionals, gCP, sTDA/sTD-DF 
  Waldemar Hujo          : DFT-NL                                        
  H. Jonsson             : NEB                                           
  Holger Kruse           : gCP                                           
  Marcel Mueller         : wB97X-3c, vDZP basis set                      
  Hagen Neugebauer       : wr2SCAN, Native XTB                           
  Gianluca Regni         : ADLD/ADEX                                     
  Tobias Risthaus        : pre 6.0 range-separated hybrid DFT and stability analysis
  Lukas Wittmann         : regularized MP2, r2SCAN double-hybrids, wr2SCAN        
                                                                         
We gratefully acknowledge several colleagues who have allowed us to      
interface, adapt or use parts of their codes:                            
  Ed Valeev, F. Pavosevic, A. Kumar             : LibInt (2-el integral package), F12 methods 
  Garnet Chan, S. Sharma, J. Yang, R. Olivares  : DMRG                   
  Ulf Ekstrom                                   : XCFun DFT Library      
  Mihaly Kallay                                 : mrcc  (arbitrary order and MRCC methods)
  Frank Weinhold                                : gennbo (NPA and NBO analysis)           
  Simon Mueller                                 : openCOSMO-RS                            
  Christopher J. Cramer and Donald G. Truhlar   : smd solvation model                     
  S Lehtola, MJT Oliveira, MAL Marques          : LibXC Library                           
  Liviu Ungur et al                             : ANISO software                          


 Your calculation uses the libint2 library for the computation of 2-el integrals
 For citations please refer to: http://libint.valeyev.net

 Your ORCA version has been built with support for libXC version: 7.0.0
 For citations please refer to: https://libxc.gitlab.io

 This ORCA versions uses:
   CBLAS   interface :  Fast vector & matrix operations
   LAPACKE interface :  Fast linear algebra routines
   SCALAPACK package :  Parallel linear algebra routines
   Shared memory     :  Shared parallel matrices
   BLAS/LAPACK       :  OpenBLAS 0.3.29  USE64BITINT DYNAMIC_ARCH NO_AFFINITY SkylakeX SINGLE_THREADED
        Core in use  :  SkylakeX
   Copyright (c) 2011-2014, The OpenBLAS Project


  ***********************************
  * Starting time: Mon Aug  4 15:01:33 2025
  * Host name:     csed-0009
  * Process ID:    705029
  * Working dir.:  /gpfs/fs1/home/copan/proj/cyclopentene-oh-addition-project/calc/C3e1+OH/run-wb97x-3c
  ***********************************

Your calculation utilizes the atom-pairwise dispersion correction
based on EEQ partial charges (D4)


================================================================================

cite the ECPs for C  [vDZP-ECP], O  [vDZP-ECP] as follows:
   B-Ne (ecp-2-mwb), Al-Ar (ecp-10-mwb), Ga-Kr (ecp-28-mwb), Y-Cd (ecp-28-mwb), In-Xe (ecp-46-mwb):
     A. Bergner, M. Dolg, W. Küchle, H. Stoll, and H. Preuß, Mol. Phys. 80, 1431 (1993)., T. Leininger, A. Berning, A. Nicklass, H. Stoll, H.-J. Werner, and H.-J.Flad, Chem. Phys. 217, 19 (1997).
   Na-Mg, K-Ca, Rb-Sr, Cs-Ba (CRENBL):
     L. Fernandez Pacios and P. A. Christiansen, J. Chem. Phys. 82, 2664 (1985)., M. M. Hurley, L. F. Pacios, P. A. Christiansen, R. B. Ross, and W. C. Ermler, J. Chem. Phys. 84, 6840 (1986)., L. A. LaJohn, P. A. Christiansen, R. B. Ross, T. Atashroo, and W. C. Ermler, J. Chem. Phys. 87, 2812 (1987)., R. B. Ross, J. M. Powers, T. Atashroo, W. C. Ermler, L. A. LaJohn, and P. A. Christiansen, J. Chem. Phys. 93, 6654 (1990). 
   Sc-Zn (ecp-10-mdf):
     M. Dolg, U. Wedig, H. Stoll, and H. Preuss, J. Chem. Phys. 86, 866 (1986). 
   Y-Cd (ecp-28-mwb), Hf-Hg (ecp-60-mwb):
     D. Andrae, U. Häußermann, M. Dolg, H. Stoll, and H. Preuß, Theor. Chim. Acta 77, 123 (1990). 
   La (ecp-46-mwb):
     M. Dolg, H. Stoll, and H. Preuss, J. Chem. Phys. 90, 1730 (1989)., M. Dolg, H. Stoll, and H. Preuss, Theor. Chim. Acta 85, 441 (1993).
   Ce-Lu (SBKJC-ecp):
     T. R. Cundari and W. J. Stevens, J. Chem. Phys. 98, 5555 (1993).
   Tl-Rn (ecp-78-mwb):
     W. Küchle, M. Dolg, H. Stoll, and H. Preuss, Mol. Phys. 74, 1245 (1991).

ECP parameters for C  [vDZP-ECP], O  [vDZP-ECP] have been obtained from:
MM, AH, SG, J. Chem. Phys. 158, 014103 (2023), 10.1063/5.0133026

----- Orbital basis set information -----
Your calculation utilizes the basis: vDZP
   Marcel Mueller, Andreas Hansen, Stefan Grimme 
   J. Chem. Phys. 158, 014103 (2023). DOI: 10.1063/5.0133026

----- AuxJ basis set information -----
Your calculation utilizes the auxiliary basis: def2/J
   H-Rn: F. Weigend, Phys. Chem. Chem. Phys. 8, 1057 (2006).
   Fr-Lr: K. Eichkorn, F. Weigend, O. Treutler, R. Ahlrichs; Theor. Chem. Acc. 97, 119 (1997).

================================================================================
                                        WARNINGS
                       Please study these warnings very carefully!
================================================================================

WARNING: Frozen-Core approximation turned on, but there are no core electrons.
  ===> : Turning off frozen-core approximation


WARNING: your system is open-shell and RHF/RKS was chosen
  ===> : WILL SWITCH to UHF/UKS


WARNING: Geometry Optimization
  ===> : Switching off AutoStart
         For restart on a previous wavefunction, please use MOREAD

================================================================================
                                       INPUT FILE
================================================================================
NAME = opt.inp
|  1> ! wB97X-3c
|  2> ! OPT
|  3> * xyz 0 2
|  4>  C                 -0.61880100    1.33440400   -0.21215800 
|  5>  C                 -0.82827700    0.20339400    0.45527500 
|  6>  H                 -0.40518200    2.26356200    0.29925400 
|  7>  H                 -0.67421400    1.37294700   -1.29406000 
|  8>  C                 -1.13806300   -1.12435400   -0.16095200 
|  9>  H                 -2.08567700   -1.51537500    0.21754200 
| 10>  H                 -1.20326800   -1.05861900   -1.24700200 
| 11>  H                 -0.36868900   -1.85730300    0.09389300 
| 12>  H                 -0.77224300    0.22197900    1.54008400 
| 13>  O                  2.43052800   -0.26483000   -0.00532100 
| 14>  H                  1.57589700    0.21078700   -0.06013200
| 15> **                         ****END OF INPUT****
================================================================================

                       *****************************
                       * Geometry Optimization Run *
                       *****************************

Geometry optimization settings:
Update method            Update   .... BFGS
Choice of coordinates    CoordSys .... (2022) Redundant Internals
Initial Hessian          InHess   .... Almloef's Model
Max. no of cycles        MaxIter  .... 50

Convergence Tolerances:
Energy Change            TolE     ....  5.0000e-06 Eh
Max. Gradient            TolMAXG  ....  3.0000e-04 Eh/bohr
RMS Gradient             TolRMSG  ....  1.0000e-04 Eh/bohr
Max. Displacement        TolMAXD  ....  4.0000e-03 bohr
RMS Displacement         TolRMSD  ....  2.0000e-03 bohr
Strict Convergence                .... False

------------------------------------------------------------------------------
                        ORCA OPTIMIZATION COORDINATE SETUP
------------------------------------------------------------------------------

The optimization will be done in redundant internal coordinates (2022)
Making redundant internal coordinates   ...  (2022 redundants) done
Evaluating the initial hessian          ...  (Almloef) done
Evaluating the coordinates              ...  done
Calculating the B-matrix                .... done
Calculating the G-matrix                .... done
The number of degrees of freedom        ....  148

    -----------------------------------------------------------------
                    Redundant Internal Coordinates


    -----------------------------------------------------------------
         Definition                    Initial Value    Approx d2E/dq
    -----------------------------------------------------------------
      1. B(C   1,C   0)                  1.3299         0.779267   
      2. B(H   2,C   0)                  1.0819         0.370975   
      3. B(H   3,C   0)                  1.0840         0.368118   
      4. B(C   4,C   1)                  1.4962         0.422962   
      5. B(H   5,C   4)                  1.0928         0.356466   
      6. B(H   6,C   4)                  1.0900         0.360114   
      7. B(H   7,C   4)                  1.0927         0.356484   
      8. B(H   8,C   1)                  1.0864         0.364875   
      9. B(H  10,H   7)                  2.8429         0.010000   
     10. B(H  10,H   8)                  2.8416         0.010000   
     11. B(H  10,H   3)                  2.8171         0.010000   
     12. B(H  10,C   0)                  2.4703         0.010000   
     13. B(H  10,C   1)                  2.4588         0.010000   
     14. B(H  10,H   2)                  2.8754         0.010000   
     15. B(H  10,O   9)                  0.9796         0.483839   
     16. B(H  10,C   4)                  3.0263         0.010000   
     17. A(C   1,C   0,H   2)          121.6188         0.368803   
     18. A(H   3,C   0,H  10)           97.0659         0.153378   
     19. A(H   2,C   0,H   3)          116.8295         0.293219   
     20. A(C   1,C   0,H   3)          121.5401         0.368314   
     21. A(C   1,C   0,H  10)           73.8721         0.177206   
     22. A(H   2,C   0,H  10)          100.7268         0.153491   
     23. A(C   4,C   1,H  10)           96.8219         0.166549   
     24. A(C   0,C   1,H   8)          118.5853         0.367755   
     25. A(C   4,C   1,H   8)          115.9198         0.331748   
     26. A(C   0,C   1,H  10)           74.8245         0.178051   
     27. A(C   0,C   1,C   4)          125.4947         0.422260   
     28. A(H   8,C   1,H  10)           99.1387         0.153865   
     29. A(C   0,H   2,H  10)           57.5767         0.114328   
     30. A(C   0,H   3,H  10)           60.4846         0.115538   
     31. A(H   5,C   4,H   6)          108.3498         0.290378   
     32. A(C   1,C   4,H   6)          111.6688         0.331028   
     33. A(H   5,C   4,H  10)          157.5194         0.129254   
     34. A(C   1,C   4,H  10)           53.7782         0.137379   
     35. A(C   1,C   4,H   5)          110.7588         0.330471   
     36. A(H   6,C   4,H   7)          108.3573         0.290381   
     37. A(H   5,C   4,H   7)          106.8440         0.289917   
     38. A(H   7,C   4,H  10)           69.9242         0.129254   
     39. A(C   1,C   4,H   7)          110.6950         0.330474   
     40. A(H   6,C   4,H  10)           93.4533         0.129347   
     41. A(C   4,H   7,H  10)           88.9128         0.114787   
     42. A(C   1,H   8,H  10)           58.6840         0.114952   
     43. A(H   7,H  10,O   9)          103.9176         0.116311   
     44. A(H   3,H  10,H   8)           65.4813         0.092385   
     45. A(C   0,H  10,H   8)           45.4690         0.097212   
     46. A(C   1,H  10,H   8)           22.1773         0.097291   
     47. A(C   4,H  10,H   7)           21.1629         0.094166   
     48. A(H   8,H  10,O   9)          133.7360         0.116341   
     49. A(H   3,H  10,C   4)           56.7094         0.094278   
     50. A(C   0,H  10,C   4)           53.2641         0.101805   
     51. A(C   1,H  10,C   4)           29.4000         0.101928   
     52. A(C   0,H  10,H   3)           22.4495         0.097381   
     53. A(C   1,H  10,H   3)           46.5341         0.097461   
     54. A(H   3,H  10,O   9)          157.1665         0.116903   
     55. A(H   2,H  10,H   7)           92.3669         0.092222   
     56. A(H   2,H  10,H   8)           50.0185         0.092225   
     57. A(H   2,H  10,H   3)           37.8071         0.092291   
     58. A(C   0,H  10,C   1)           31.3034         0.109525   
     59. A(C   0,H  10,H   2)           21.6966         0.096984   
     60. A(C   1,H  10,H   2)           45.7551         0.097061   
     61. A(H   2,H  10,O   9)          160.1731         0.115584   
     62. A(C   4,H  10,O   9)          124.7540         0.131633   
     63. A(H   7,H  10,H   8)           53.6384         0.092313   
     64. A(H   3,H  10,H   7)           77.1436         0.092381   
     65. A(C   0,H  10,H   7)           74.1283         0.097203   
     66. A(C   4,H  10,H   8)           43.8984         0.094172   
     67. A(C   1,H  10,H   7)           46.9719         0.097282   
     68. A(H   2,H  10,C   4)           72.6176         0.094029   
     69. A(C   1,H  10,O   9)          147.1250         0.157338   
     70. D(H   8,C   1,C   0,H   3)   -179.2901         0.051148   
     71. D(H   8,C   1,C   0,H  10)     92.2703         0.051148   
     72. D(H   8,C   1,C   0,H   2)     -0.5670         0.051148   
     73. D(C   4,C   1,C   0,H  10)    -87.5776         0.051148   
     74. D(H  10,C   1,C   0,H   2)    -92.8374         0.051148   
     75. D(C   4,C   1,C   0,H   3)      0.8620         0.051148   
     76. D(C   4,C   1,C   0,H   2)    179.5850         0.051148   
     77. D(H  10,H   2,C   0,H   3)   -103.6574         0.130613   
     78. D(H  10,H   2,C   0,C   1)     77.5622         0.130613   
     79. D(H  10,H   3,C   0,H   2)    105.8350         0.128170   
     80. D(H  10,H   3,C   0,C   1)    -75.3836         0.128170   
     81. D(H   6,C   4,C   1,H  10)    -77.8377         0.015029   
     82. D(H   5,C   4,C   1,C   0)   -122.4914         0.015029   
     83. D(H   5,C   4,C   1,H  10)    161.3069         0.015029   
     84. D(H   6,C   4,C   1,C   0)     -1.6360         0.015029   
     85. D(H   7,C   4,C   1,C   0)    119.1851         0.015029   
     86. D(H   6,C   4,C   1,H   8)    178.5125         0.015029   
     87. D(H   5,C   4,C   1,H   8)     57.6570         0.015029   
     88. D(H  10,H   7,C   4,H   6)     86.9216         0.129271   
     89. D(H  10,H   7,C   4,H   5)   -156.5252         0.129271   
     90. D(H  10,H   7,C   4,C   1)    -35.8456         0.129271   
     91. D(H  10,H   8,C   1,C   4)    102.2365         0.125432   
     92. D(H  10,H   8,C   1,C   0)    -77.6259         0.125432   
     93. D(H   8,H  10,C   0,H   3)   -148.9256         0.010000   
     94. D(O   9,H  10,C   4,C   1)    148.3162         0.010000   
     95. D(C   4,H  10,H   3,C   0)     73.4665         0.010000   
     96. D(H   8,H  10,C   0,C   1)    -28.0717         0.010000   
     97. D(H   8,H  10,C   0,H   2)     91.9727         0.010000   
     98. D(O   9,H  10,C   4,H   7)     11.0859         0.010000   
     99. D(H   7,H  10,C   0,C   1)     26.1299         0.010000   
    100. D(H   3,H  10,C   0,H   2)   -119.1017         0.010000   
    101. D(C   1,H  10,H   3,C   0)     37.9201         0.010000   
    102. D(H   3,H  10,C   0,C   1)    120.8539         0.010000   
    103. D(C   1,H  10,C   0,H   3)   -120.8539         0.010000   
    104. D(H   7,H  10,H   2,C   0)    -32.4052         0.010000   
    105. D(H   8,H  10,H   2,C   0)    -68.4010         0.010000   
    106. D(C   1,H  10,C   0,H   2)    120.0445         0.010000   
    107. D(C   1,H  10,H   2,C   0)    -38.8906         0.010000   
    108. D(O   9,H  10,H   2,C   0)   -177.9315         0.010000   
    109. D(H   8,H  10,C   1,C   4)   -117.7188         0.010000   
    110. D(H   8,H  10,C   1,C   0)    117.2901         0.010000   
    111. D(H   3,H  10,C   1,H   8)   -144.1420         0.010000   
    112. D(H   3,H  10,C   1,C   4)     98.1392         0.010000   
    113. D(H   3,H  10,C   1,C   0)    -26.8519         0.010000   
    114. D(C   0,H  10,C   1,H   8)   -117.2901         0.010000   
    115. D(H   3,H  10,H   2,C   0)     32.9771         0.010000   
    116. D(H   3,H  10,H   8,C   1)     27.8582         0.010000   
    117. D(C   0,H  10,C   1,C   4)    124.9911         0.010000   
    118. D(C   4,H  10,H   2,C   0)    -24.6939         0.010000   
    119. D(O   9,H  10,H   3,C   0)    174.8785         0.010000   
    120. D(O   9,H  10,C   1,H   8)     65.0634         0.010000   
    121. D(H   8,H  10,H   3,C   0)     23.8546         0.010000   
    122. D(H   7,H  10,H   3,C   0)     79.5011         0.010000   
    123. D(H   2,H  10,H   3,C   0)    -31.7993         0.010000   
    124. D(H   2,H  10,H   7,C   4)     20.7748         0.010000   
    125. D(H   8,H  10,H   7,C   4)     54.7777         0.010000   
    126. D(O   9,H  10,C   4,H   5)     96.7086         0.010000   
    127. D(O   9,H  10,C   4,H   6)    -97.2068         0.010000   
    128. D(O   9,H  10,C   1,C   4)    -52.6554         0.010000   
    129. D(C   1,H  10,C   4,H   5)    -51.6076         0.010000   
    130. D(C   1,H  10,C   4,H   6)    114.4770         0.010000   
    131. D(C   1,H  10,C   4,H   7)   -137.2303         0.010000   
    132. D(O   9,H  10,C   1,C   0)   -177.6465         0.010000   
    133. D(C   1,H  10,H   7,C   4)     27.1297         0.010000   
    134. D(O   9,H  10,H   7,C   4)   -170.6330         0.010000   
    135. D(H   2,H  10,C   0,C   1)   -120.0445         0.010000   
    136. D(C   0,H  10,C   4,H   7)   -169.3125         0.010000   
    137. D(C   0,H  10,C   4,H   6)     82.3948         0.010000   
    138. D(C   0,H  10,H   7,C   4)      8.8885         0.010000   
    139. D(H   3,H  10,H   7,C   4)    -14.0883         0.010000   
    140. D(H   7,H  10,C   0,H   3)    -94.7240         0.010000   
    141. D(C   0,H  10,C   4,H   5)    -83.6898         0.010000   
    142. D(O   9,H  10,H   8,C   1)   -137.0608         0.010000   
    143. D(C   0,H  10,H   8,C   1)     40.3698         0.010000   
    144. D(C   0,H  10,C   4,C   1)    -32.0822         0.010000   
    145. D(H   7,H  10,H   8,C   1)    -63.9822         0.010000   
    146. D(H   2,H  10,H   8,C   1)     69.1977         0.010000   
    147. D(C   4,H  10,H   8,C   1)    -38.8098         0.010000   
    148. D(H   7,H  10,C   0,H   2)    146.1743         0.010000   
    -----------------------------------------------------------------

Number of atoms                         .... 11
Number of degrees of freedom            .... 148


         *************************************************************
         *                GEOMETRY OPTIMIZATION CYCLE   1            *
         *************************************************************
---------------------------------
CARTESIAN COORDINATES (ANGSTROEM)
---------------------------------
  C     -0.618801    1.334404   -0.212158
  C     -0.828277    0.203394    0.455275
  H     -0.405182    2.263562    0.299254
  H     -0.674214    1.372947   -1.294060
  C     -1.138063   -1.124354   -0.160952
  H     -2.085677   -1.515375    0.217542
  H     -1.203268   -1.058619   -1.247002
  H     -0.368689   -1.857303    0.093893
  H     -0.772243    0.221979    1.540084
  O      2.430528   -0.264830   -0.005321
  H      1.575897    0.210787   -0.060132

----------------------------
CARTESIAN COORDINATES (A.U.)
----------------------------
  NO LB      ZA    FRAG     MASS         X           Y           Z
   0 C     4.0000*   0    12.011   -1.169364    2.521658   -0.400921
   1 C     4.0000*   0    12.011   -1.565217    0.384359    0.860345
   2 H     1.0000    0     1.008   -0.765683    4.277512    0.565508
   3 H     1.0000    0     1.008   -1.274080    2.594494   -2.445419
   4 C     4.0000*   0    12.011   -2.150627   -2.124721   -0.304155
   5 H     1.0000    0     1.008   -3.941358   -2.863644    0.411095
   6 H     1.0000    0     1.008   -2.273847   -2.000500   -2.356492
   7 H     1.0000    0     1.008   -0.696721   -3.509794    0.177432
   8 H     1.0000    0     1.008   -1.459328    0.419480    2.910337
   9 O     6.0000*   0    15.999    4.593032   -0.500456   -0.010055
  10 H     1.0000    0     1.008    2.978014    0.398330   -0.113633
* core charge reduced due to ECP

--------------------------------
INTERNAL COORDINATES (ANGSTROEM)
--------------------------------
 C      0   0   0     0.000000000000     0.00000000     0.00000000
 C      1   0   0     1.329861129654     0.00000000     0.00000000
 H      1   2   0     1.081901058262   121.61881231     0.00000000
 H      1   2   3     1.084005581638   121.54010005   181.27692354
 C      2   1   3     1.496201133815   125.49473069   179.58503501
 H      5   2   1     1.092761375357   110.75877254   237.50857429
 H      5   2   1     1.089989625983   111.66877952   358.36400083
 H      5   2   1     1.092747254630   110.69502704   119.18511250
 H      2   1   3     1.086414183386   118.58533516   359.43296607
 O      8   5   2     3.222022576987   105.84227595   321.29263082
 H     10   8   5     0.979596816334    58.91850630     9.73856989

---------------------------
INTERNAL COORDINATES (A.U.)
---------------------------
 C      0   0   0     0.000000000000     0.00000000     0.00000000
 C      1   0   0     2.513073331193     0.00000000     0.00000000
 H      1   2   0     2.044496704115   121.61881231     0.00000000
 H      1   2   3     2.048473676938   121.54010005   181.27692354
 C      2   1   3     2.827410384173   125.49473069   179.58503501
 H      5   2   1     2.065019729153   110.75877254   237.50857429
 H      5   2   1     2.059781881923   111.66877952   358.36400083
 H      5   2   1     2.064993044846   110.69502704   119.18511250
 H      2   1   3     2.053025274607   118.58533516   359.43296607
 O      8   5   2     6.088740267817   105.84227595   321.29263082
 H     10   8   5     1.851169704532    58.91850630     9.73856989

---------------------
BASIS SET INFORMATION
---------------------
There are 3 groups of distinct atoms

 Group   1 Type C   : 6s6p2d contracted to 2s2p1d pattern {42/42/2}
 Group   2 Type H   : 8s2p contracted to 2s1p pattern {53/2}
 Group   3 Type O   : 6s6p2d contracted to 2s2p1d pattern {42/42/2}

Atom   0C    basis set group =>   1
Atom   1C    basis set group =>   1
Atom   2H    basis set group =>   2
Atom   3H    basis set group =>   2
Atom   4C    basis set group =>   1
Atom   5H    basis set group =>   2
Atom   6H    basis set group =>   2
Atom   7H    basis set group =>   2
Atom   8H    basis set group =>   2
Atom   9O    basis set group =>   3
Atom  10H    basis set group =>   2
---------------------------------
AUXILIARY/J BASIS SET INFORMATION
---------------------------------
There are 3 groups of distinct atoms

 Group   1 Type C   : 12s5p4d2f1g contracted to 6s4p3d1f1g pattern {711111/2111/211/2/1}
 Group   2 Type H   : 5s2p1d contracted to 3s1p1d pattern {311/2/1}
 Group   3 Type O   : 12s5p4d2f1g contracted to 6s4p3d1f1g pattern {711111/2111/211/2/1}

Atom   0C    basis set group =>   1
Atom   1C    basis set group =>   1
Atom   2H    basis set group =>   2
Atom   3H    basis set group =>   2
Atom   4C    basis set group =>   1
Atom   5H    basis set group =>   2
Atom   6H    basis set group =>   2
Atom   7H    basis set group =>   2
Atom   8H    basis set group =>   2
Atom   9O    basis set group =>   3
Atom  10H    basis set group =>   2
-------------------------
ECP PARAMETER INFORMATION
-------------------------

 Group 1, Type C  ECP vDZP-ECP (replacing 2 core electrons, lmax=3)
 Group 2, Type O  ECP vDZP-ECP (replacing 2 core electrons, lmax=3)

Atom   0C    ECP group =>   1
Atom   1C    ECP group =>   1
Atom   4C    ECP group =>   1
Atom   9O    ECP group =>   2

------------------------------------------------------------------------------
                             ORCA STARTUP CALCULATIONS
                           -- RI-GTO INTEGRALS CHOSEN --
------------------------------------------------------------------------------
------------------------------------------------------------------------------
                   ___                                                        
                  /   \      - P O W E R E D   B Y -                         
                 /     \                                                     
                 |  |  |   _    _      __       _____    __    __             
                 |  |  |  | |  | |    /  \     |  _  \  |  |  /  |          
                  \  \/   | |  | |   /    \    | | | |  |  | /  /          
                 / \  \   | |__| |  /  /\  \   | |_| |  |  |/  /          
                |  |  |   |  __  | /  /__\  \  |    /   |      \           
                |  |  |   | |  | | |   __   |  |    \   |  |\   \          
                \     /   | |  | | |  |  |  |  | |\  \  |  | \   \       
                 \___/    |_|  |_| |__|  |__|  |_| \__\ |__|  \__/        
                                                                              
                      - O R C A' S   B I G   F R I E N D -                    
                                      &                                       
                       - I N T E G R A L  F E E D E R -                       
                                                                              
 v1 FN, 2020, v2 2021, v3 2022-2024                                           
------------------------------------------------------------------------------


----------------------
SHARK INTEGRAL PACKAGE
----------------------

Number of atoms                             ...     11
Number of basis functions                   ...     87
Number of shells                            ...     41
Maximum angular momentum                    ...      2
Integral batch strategy                     ... SHARK/LIBINT Hybrid
RI-J (if used) integral strategy            ... SPLIT-RIJ (Revised 2003 algorithm where possible)
Printlevel                                  ...      1
Contraction scheme used                     ... SEGMENTED contraction
Prescreening option                         ... SCHWARTZ
   Thresh                                   ... 2.500e-11
   Tcut                                     ... 2.500e-12
   Tpresel                                  ... 2.500e-12 
Coulomb Range Separation                    ... NOT USED
Exchange Range Separation                   ... Long Range
   Mu parameter                             ... 3.000e-01
   Scaling (regular/separated)              ... 1.670e-01 8.330e-01
Robust (split-)RI terms used:
  metric    (central integrals)             ... YES
  density   (r.h.s.  integrals)             ... YES
  potential (l.h.s.  integrals)             ... YES
Multipole approximations                    ... NOT USED
Finite Nucleus Model                        ... NOT USED
CABS basis                                  ... NOT available
Auxiliary Coulomb fitting basis             ... AVAILABLE
   # of basis functions in Aux-J            ...    273
   # of shells in Aux-J                     ...     95
   Maximum angular momentum in Aux-J        ...      4
Auxiliary J/K fitting basis                 ... NOT available
Auxiliary Correlation fitting basis         ... NOT available
Auxiliary 'external' fitting basis          ... NOT available

Checking pre-screening integrals            ... done (  0.0 sec) Dimension = 41
   => SHARK Basis and OBASIS are compatible. Storing Pre-screening
Shell pair information
Shell pair cut-off parameter TPreSel        ...   2.5e-12
Total number of shell pairs                 ...       861
Shell pairs after pre-screening             ...       861
Total number of primitive shell pairs       ...      8159
Primitive shell pairs kept                  ...      7335
          la=0 lb=0:    253 shell pairs
          la=1 lb=0:    330 shell pairs
          la=1 lb=1:    120 shell pairs
          la=2 lb=0:     88 shell pairs
          la=2 lb=1:     60 shell pairs
          la=2 lb=2:     10 shell pairs

Checking whether 4 symmetric matrices of dimension 87 fit in memory
:Max Core in MB      =   4096.00
 MB in use           =      5.16
 MB left             =   4090.84
 MB needed           =      0.12
 Data fit in memory  = YES
Calculating RI/J V-Matrix + Cholesky decomp.... done (  0.0 sec)
Calculating Nuclear repulsion               ... done (  0.0 sec) ENN=     63.248662481128 Eh

Diagonalization of the overlap matrix:
Smallest eigenvalue                        ... 1.835e-03
Time for diagonalization                   ...    0.001 sec
Threshold for overlap eigenvalues          ... 1.000e-07
Number of eigenvalues below threshold      ... 0
Time for construction of square roots      ...    0.001 sec
Total time needed                          ...    0.002 sec

-------------------
DFT GRID GENERATION
-------------------

General Integration Accuracy     IntAcc      ... 4.388
Radial Grid Type                 RadialGrid  ... OptM3 with GC (2021)
Angular Grid (max. ang.)         AngularGrid ... 4 (Lebedev-302)
Angular grid pruning method      GridPruning ... 4 (adaptive)
Weight generation scheme         WeightScheme... mBecke (2022)
Basis function cutoff            BFCut       ... 1.0000e-11
Integration weight cutoff        WCut        ... 1.0000e-14
Partially contracted basis set               ... off
Rotationally invariant grid construction     ... off
Angular grids for H and He will be reduced by one unit

Total number of grid points                  ...    47019
Total number of batches                      ...      740
Average number of points per batch           ...       63
Average number of grid points per atom       ...     4274

--------------------
COSX GRID GENERATION
--------------------

GRIDX 1
-------
General Integration Accuracy     IntAcc      ... 3.816
Radial Grid Type                 RadialGrid  ... OptM3 with GC (2021)
Angular Grid (max. ang.)         AngularGrid ... 1 (Lebedev-50)
Angular grid pruning method      GridPruning ... 4 (adaptive)
Weight generation scheme         WeightScheme... mBecke (2022)
Basis function cutoff            BFCut       ... 1.0000e-11
Integration weight cutoff        WCut        ... 1.0000e-14
Partially contracted basis set               ... on
Rotationally invariant grid construction     ... off
Angular grids for H and He will be reduced by one unit

Total number of grid points                  ...     6056
Total number of batches                      ...       55
Average number of points per batch           ...      110
Average number of grid points per atom       ...      551
UseSFitting                                  ... on

GRIDX 2
-------
General Integration Accuracy     IntAcc      ... 4.020
Radial Grid Type                 RadialGrid  ... OptM3 with GC (2021)
Angular Grid (max. ang.)         AngularGrid ... 2 (Lebedev-110)
Angular grid pruning method      GridPruning ... 4 (adaptive)
Weight generation scheme         WeightScheme... mBecke (2022)
Basis function cutoff            BFCut       ... 1.0000e-11
Integration weight cutoff        WCut        ... 1.0000e-14
Partially contracted basis set               ... on
Rotationally invariant grid construction     ... off
Angular grids for H and He will be reduced by one unit

Total number of grid points                  ...    12777
Total number of batches                      ...      105
Average number of points per batch           ...      121
Average number of grid points per atom       ...     1162
UseSFitting                                  ... on

GRIDX 3
-------
General Integration Accuracy     IntAcc      ... 4.338
Radial Grid Type                 RadialGrid  ... OptM3 with GC (2021)
Angular Grid (max. ang.)         AngularGrid ... 3 (Lebedev-194)
Angular grid pruning method      GridPruning ... 4 (adaptive)
Weight generation scheme         WeightScheme... mBecke (2022)
Basis function cutoff            BFCut       ... 1.0000e-11
Integration weight cutoff        WCut        ... 1.0000e-14
Partially contracted basis set               ... on
Rotationally invariant grid construction     ... off
Angular grids for H and He will be reduced by one unit

Total number of grid points                  ...    28080
Total number of batches                      ...      224
Average number of points per batch           ...      125
Average number of grid points per atom       ...     2553
UseSFitting                                  ... on
Grids setup in   0.5 sec
Initializing property integral containers    ... done (  0.0 sec)

SHARK setup successfully completed in   0.7 seconds

Maximum memory used throughout the entire STARTUP-calculation: 21.3 MB
-------------------------------------------------------------------------------
                                 ORCA GUESS
                   Start orbitals & Density for SCF / CASSCF
-------------------------------------------------------------------------------

------------
SCF SETTINGS
------------
Hamiltonian:
 Density Functional     Method          .... DFT(GTOs)
 Exchange Functional    Exchange        .... WB97X-V
 Correlation Functional Correlation     .... WB97X-V
 Gradients option       PostSCFGGA      .... off
 Hybrid DFT is turned on
   Fraction HF Exchange ScalHFX         ....  0.167000
   Scaling of DF-GGA-X  ScalDFX         ....  0.000000
   Scaling of DF-GGA-C  ScalDFC         ....  1.000000
   Scaling of DF-LDA-C  ScalLDAC        ....  1.000000
   Perturbative correction              ....  0.000000
 Long-range corrected/Screened/Range-Separated Hybrid DFT is turned on
   Amount of maximum screened exact exchange              ....  0.833000
   Range separation parameter mu (erf(mu*r12)/r12)        ....  0.300000
   NL short-range parameter             ....  6.000000
   NL long-range parameter              ....  0.010000
 RI-approximation to the Coulomb term is turned on
   Number of AuxJ basis functions       .... 273
   RIJ-COSX (HFX calculated with COS-X)).... on


General Settings:
 Integral files         IntName         .... opt
 Hartree-Fock type      HFTyp           .... UHF
 Total Charge           Charge          ....    0
 Multiplicity           Mult            ....    2
 Number of Electrons    NEL             ....   25
 Basis Dimension        Dim             ....   87
 Nuclear Repulsion      ENuc            ....     63.2486624811 Eh

Convergence Acceleration:
 AO-DIIS                CNVDIIS         .... on
   Start iteration      DIISMaxIt       ....    12
   Startup error        DIISStart       ....  0.200000
   # of expansion vecs  DIISMaxEq       ....     5
   Bias factor          DIISBfac        ....   1.050
   Max. coefficient     DIISMaxC        ....  10.000
 MO-DIIS                CNVKDIIS        .... off
 Trust-Rad. Augm. Hess. CNVTRAH         .... auto
   Auto Start mean grad. ratio tolernc. ....  1.125000
   Auto Start start iteration           ....    50
   Auto Start num. interpolation iter.  ....    10
   Max. Number of Micro iterations      ....    24
   Max. Number of Macro iterations      .... Maxiter - #DIIS iter
   Number of Davidson start vectors     ....     2
   Converg. threshold    (grad. norm)   ....   1.000e-05
   Grad. Scal. Fac. for Micro threshold ....   0.100
   Minimum threshold for Micro iter.    ....   1.000e-02
   NR start threshold (gradient norm)   ....   1.000e-04
   Initial trust radius                 ....   0.400
   Minimum AH scaling param. (alpha)    ....   1.000
   Maximum AH scaling param. (alpha)    .... 1000.000
   Quad. conv. algorithm                .... NR
   White noise on init. David. guess    .... on
   Maximum white noise                  ....   0.010
   Pseudo random numbers                .... off
   Inactive MOs                         .... canonical
   Orbital update algorithm             .... Taylor
   Preconditioner                       .... Diag
   Full preconditioner red. dimension   ....   250
 SOSCF                 CNVSOSCF           .... on
   Start iteration     SOSCFMaxIt         ....   150
   Startup grad/error  SOSCFStart         ....  0.003300
   Hessian update      SOSCFHessUp        .... L-BFGS
   Autom. constraints  SOSCFAutoConstrain .... off
 Level Shifting         CNVShift        .... on
   Level shift para.    LevelShift      ....    0.2500
   Turn off err/grad.   ShiftErr        ....    0.0010
 Zerner damping         CNVZerner       .... off
 Static damping         CNVDamp         .... on
   Fraction old density DampFac         ....    0.7000
   Max. Damping (<1)    DampMax         ....    0.9800
   Min. Damping (>=0)   DampMin         ....    0.0000
   Turn off err/grad.   DampErr         ....    0.1000

SCF Procedure:
 Maximum # iterations   MaxIter         ....   125
 SCF integral mode      SCFMode         .... Direct
   Integral package                     .... SHARK and LIBINT hybrid scheme
 Reset frequency        DirectResetFreq ....    20
 Integral Threshold     Thresh          ....  2.500e-11 Eh
 Primitive CutOff       TCut            ....  2.500e-12 Eh

Convergence Tolerance:
 Convergence Check Mode ConvCheckMode   .... Total+1el-Energy
 Convergence forced     ConvForced      .... 0
 Energy Change          TolE            ....  1.000e-08 Eh
 1-El. energy change                    ....  1.000e-05 Eh
 Orbital Gradient       TolG            ....  1.000e-05
 Orbital Rotation angle TolX            ....  1.000e-05
 DIIS Error             TolErr          ....  5.000e-07

------------------------------
INITIAL GUESS: MODEL POTENTIAL
------------------------------
Loading Hartree-Fock densities                     ... done
Atomic calculation to generate a density for atom 0 (C  with ECP)
  Multiplicity assumed   :    1
  Atomic configuration   : 1s2 2s2 2p2 
  Number of open shells  : 1
  Command: /software/software/custom-built/orca/orca_6_1_0_linux_x86-64_shared_openmpi418_avx2/orca opt_atom6.inp "" > opt_atom6.out
Returned from the atomic calculation with res=0
Atomic calculation to generate a density for atom 9 (O  with ECP)
  Multiplicity assumed   :    3
  Atomic configuration   : 1s2 2s2 2p4 
  Number of open shells  : 1
  Command: /software/software/custom-built/orca/orca_6_1_0_linux_x86-64_shared_openmpi418_avx2/orca opt_atom8.inp "" > opt_atom8.out
Returned from the atomic calculation with res=0
Calculating cut-offs                               ... done
Initializing the effective Hamiltonian             ... done
Setting up the integral package (SHARK)            ... done
Starting the Coulomb interaction                   ... done (   0.1 sec)
Making the grid                                    ... done (   0.1 sec)
Mapping shells                                     ... done
Starting the XC term evaluation                    ... done (   0.1 sec)
  promolecular density results
     # of electrons  =     32.995037032
     EX              =    -16.983351133
     EC              =     -1.300189062
     EX+EC           =    -18.283540195
Transforming the Hamiltonian                       ... done (   0.0 sec)
Diagonalizing the Hamiltonian                      ... done (   0.0 sec)
Back transforming the eigenvectors                 ... done (   0.0 sec)
Now organizing SCF variables                       ... done
                      ------------------
                      INITIAL GUESS DONE (   1.0 sec)
                      ------------------
             **** ENERGY FILE WAS UPDATED (opt.en.tmp) ****
Finished Guess after   1.0 sec
Maximum memory used throughout the entire GUESS-calculation: 9.3 MB

-------------------------------------------------------------------------------------------
                                      ORCA LEAN-SCF
                              memory conserving SCF solver
-------------------------------------------------------------------------------------------

----------------------------------------D-I-I-S--------------------------------------------
Iteration    Energy (Eh)           Delta-E    RMSDP     MaxDP     DIISErr   Damp  Time(sec)
-------------------------------------------------------------------------------------------
               ***  Starting incremental Fock matrix formation  ***
    1    -37.0909313588918508     0.00e+00  2.37e-03  3.42e-02  8.63e-02  0.700   4.2
    2    -37.1553593838865481    -6.44e-02  1.75e-03  2.51e-02  5.37e-02  0.700   2.2
                               ***Turning on AO-DIIS***
    3    -37.1903047340488655    -3.49e-02  8.67e-04  1.12e-02  2.94e-02  0.700   2.2
    4    -37.2110842981668952    -2.08e-02  1.83e-03  2.22e-02  1.91e-02  0.000   2.2
                              *** Initializing SOSCF ***
---------------------------------------S-O-S-C-F--------------------------------------
Iteration    Energy (Eh)           Delta-E    RMSDP     MaxDP     MaxGrad    Time(sec)
--------------------------------------------------------------------------------------
    5    -37.2549340444796258    -4.38e-02  1.65e-04  3.32e-03  3.23e-03     2.2
               *** Restarting incremental Fock matrix formation ***
    6    -37.2551362360787266    -2.02e-04  1.13e-04  2.59e-03  2.78e-03     4.2
    7    -37.2551966930009968    -6.05e-05  1.06e-04  2.59e-03  1.41e-03     3.7
    8    -37.2552130123385723    -1.63e-05  2.97e-05  4.54e-04  4.03e-04     3.7
    9    -37.2552164881691539    -3.48e-06  1.06e-05  2.53e-04  2.26e-04     3.5
   10    -37.2552168941243451    -4.06e-07  8.85e-06  3.40e-04  1.59e-04     3.3
   11    -37.2552171476698675    -2.54e-07  4.66e-06  1.77e-04  6.79e-05     3.2
   12    -37.2552172034585141    -5.58e-08  1.86e-06  3.52e-05  1.62e-05     3.1
   13    -37.2552172153253451    -1.19e-08  6.19e-07  1.45e-05  9.05e-06     2.9
   14    -37.2552172199257257    -4.60e-09  2.04e-07  7.14e-06  4.53e-06     2.6
                 **** Energy Check signals convergence ****

               *****************************************************
               *                     SUCCESS                       *
               *           SCF CONVERGED AFTER  14 CYCLES          *
               *****************************************************

Recomputing exchange energy using gridx3       ... done (    7.872 sec)
Old exchange energy                            :     -4.897438771 Eh
New exchange energy                            :     -4.897442618 Eh
Exchange energy change after final integration :     -0.000003848 Eh
Total energy after final integration           :    -37.255221066 Eh
             **** ENERGY FILE WAS UPDATED (opt.en.tmp) ****

----------------
TOTAL SCF ENERGY
----------------

Total Energy       :        -37.25522106582287 Eh           -1013.76610 eV

Components:
Nuclear Repulsion  :         63.24866248112794 Eh            1721.08360 eV
Electronic Energy  :       -100.50387969925549 Eh           -2734.84960 eV
One Electron Energy:       -181.54518687946688 Eh           -4940.09568 eV
Two Electron Energy:         81.04130718021139 Eh            2205.24608 eV

Virial components:
Potential Energy   :        -66.36058829111577 Eh           -1805.76341 eV
Kinetic Energy     :         29.10536722529290 Eh             791.99731 eV
Virial Ratio       :          2.28001206023086

DFT components:
N(Alpha)           :       13.000038793843 electrons
N(Beta)            :       12.000034089982 electrons
N(Total)           :       25.000072883825 electrons
E(X)               :       -5.456119292524 Eh       
E(C)               :       -0.904858802711 Eh       
E(XC)              :       -6.360978095234 Eh       

---------------
SCF CONVERGENCE
---------------

  Last Energy change         ...    4.6004e-09  Tolerance :   1.0000e-08
  Last MAX-Density change    ...    7.1365e-06  Tolerance :   1.0000e-07
  Last RMS-Density change    ...    2.0434e-07  Tolerance :   5.0000e-09
  Last DIIS Error            ...    3.2258e-03  Tolerance :   5.0000e-07
  Last Orbital Gradient      ...    4.5263e-06  Tolerance :   1.0000e-05
  Last Orbital Rotation      ...    1.2933e-05  Tolerance :   1.0000e-05


----------------------
UHF SPIN CONTAMINATION
----------------------

Warning: in a DFT calculation there is little theoretical justification to 
         calculate <S**2> as in Hartree-Fock theory. We will do it anyways
         but you should keep in mind that the values have only limited relevance

Expectation value of <S**2>     :     0.752347
Ideal value S*(S+1) for S=0.5   :     0.750000
Deviation                       :     0.002347

----------------
ORBITAL ENERGIES
----------------
                 SPIN UP ORBITALS
  NO   OCC          E(Eh)            E(eV) 
   0   1.0000      -1.124295       -30.5936 
   1   1.0000      -0.945464       -25.7274 
   2   1.0000      -0.835770       -22.7424 
   3   1.0000      -0.695879       -18.9358 
   4   1.0000      -0.601328       -16.3630 
   5   1.0000      -0.586184       -15.9509 
   6   1.0000      -0.550930       -14.9916 
   7   1.0000      -0.538063       -14.6414 
   8   1.0000      -0.523100       -14.2343 
   9   1.0000      -0.494213       -13.4482 
  10   1.0000      -0.468299       -12.7431 
  11   1.0000      -0.454328       -12.3629 
  12   1.0000      -0.380964       -10.3666 
  13   0.0000       0.074802         2.0355 
  14   0.0000       0.085039         2.3140 
  15   0.0000       0.102835         2.7983 
  16   0.0000       0.109725         2.9858 
  17   0.0000       0.135845         3.6965 
  18   0.0000       0.148286         4.0351 
  19   0.0000       0.160994         4.3809 
  20   0.0000       0.177349         4.8259 
  21   0.0000       0.295295         8.0354 
  22   0.0000       0.374246        10.1838 
  23   0.0000       0.395917        10.7734 

                 SPIN DOWN ORBITALS
  NO   OCC          E(Eh)            E(eV) 
   0   1.0000      -1.051630       -28.6163 
   1   1.0000      -0.945388       -25.7253 
   2   1.0000      -0.835780       -22.7427 
   3   1.0000      -0.695894       -18.9362 
   4   1.0000      -0.601293       -16.3620 
   5   1.0000      -0.560976       -15.2649 
   6   1.0000      -0.550937       -14.9918 
   7   1.0000      -0.535679       -14.5766 
   8   1.0000      -0.494214       -13.4483 
   9   1.0000      -0.468301       -12.7431 
  10   1.0000      -0.426876       -11.6159 
  11   1.0000      -0.380417       -10.3517 
  12   0.0000      -0.058353        -1.5879 
  13   0.0000       0.075269         2.0482 
  14   0.0000       0.086037         2.3412 
  15   0.0000       0.103628         2.8199 
  16   0.0000       0.110170         2.9979 
  17   0.0000       0.138256         3.7621 
  18   0.0000       0.148360         4.0371 
  19   0.0000       0.162789         4.4297 
  20   0.0000       0.178200         4.8491 
  21   0.0000       0.295462         8.0399 
  22   0.0000       0.374444        10.1891 
*Only the first 10 virtual orbitals were printed.

                    ********************************
                    * MULLIKEN POPULATION ANALYSIS *
                    ********************************

--------------------------------------------
MULLIKEN ATOMIC CHARGES AND SPIN POPULATIONS
--------------------------------------------
   0 C :   -0.073425   -0.000432
   1 C :   -0.082021   -0.000912
   2 H :    0.038119   -0.000029
   3 H :    0.032876   -0.000041
   4 C :   -0.068169   -0.000151
   5 H :    0.049959    0.000115
   6 H :    0.034153    0.000039
   7 H :    0.052491   -0.000715
   8 H :    0.027606   -0.000064
   9 O :   -0.191585    1.013720
  10 H :    0.179997   -0.011530
Sum of atomic charges         :    0.0000000
Sum of atomic spin populations:    1.0000000

-----------------------------------------------------
MULLIKEN REDUCED ORBITAL CHARGES AND SPIN POPULATIONS
-----------------------------------------------------
CHARGE
  0 C s       :     1.010804  s :     1.010804
      pz      :     1.010803  p :     2.996205
      px      :     1.000472
      py      :     0.984929
      dz2     :     0.022953  d :     0.066416
      dxz     :     0.004516
      dyz     :     0.017432
      dx2y2   :     0.009045
      dxy     :     0.012470

  1 C s       :     1.083448  s :     1.083448
      pz      :     1.004458  p :     2.898253
      px      :     0.937002
      py      :     0.956794
      dz2     :     0.031045  d :     0.100320
      dxz     :     0.006312
      dyz     :     0.022595
      dx2y2   :     0.015982
      dxy     :     0.024387

  2 H s       :     0.912644  s :     0.912644
      pz      :     0.013319  p :     0.049237
      px      :     0.014136
      py      :     0.021782

  3 H s       :     0.917754  s :     0.917754
      pz      :     0.026014  p :     0.049371
      px      :     0.013650
      py      :     0.009707

  4 C s       :     0.932438  s :     0.932438
      pz      :     1.038197  p :     3.062882
      px      :     1.052602
      py      :     0.972083
      dz2     :     0.021745  d :     0.072850
      dxz     :     0.006267
      dyz     :     0.011142
      dx2y2   :     0.011874
      dxy     :     0.021822

  5 H s       :     0.904543  s :     0.904543
      pz      :     0.011774  p :     0.045498
      px      :     0.020666
      py      :     0.013058

  6 H s       :     0.921416  s :     0.921416
      pz      :     0.023924  p :     0.044431
      px      :     0.010482
      py      :     0.010025

  7 H s       :     0.901971  s :     0.901971
      pz      :     0.010965  p :     0.045539
      px      :     0.017238
      py      :     0.017336

  8 H s       :     0.926032  s :     0.926032
      pz      :     0.025002  p :     0.046361
      px      :     0.011301
      py      :     0.010059

  9 O s       :     1.811575  s :     1.811575
      pz      :     1.140897  p :     4.366349
      px      :     1.531513
      py      :     1.693939
      dz2     :     0.002878  d :     0.013661
      dxz     :     0.000831
      dyz     :     0.000410
      dx2y2   :     0.003338
      dxy     :     0.006204

 10 H s       :     0.712628  s :     0.712628
      pz      :     0.019100  p :     0.107375
      px      :     0.050637
      py      :     0.037637


SPIN
  0 C s       :    -0.000057  s :    -0.000057
      pz      :    -0.000027  p :    -0.000343
      px      :    -0.000284
      py      :    -0.000033
      dz2     :    -0.000004  d :    -0.000032
      dxz     :    -0.000007
      dyz     :    -0.000001
      dx2y2   :    -0.000032
      dxy     :     0.000012

  1 C s       :    -0.000025  s :    -0.000025
      pz      :     0.000032  p :    -0.000853
      px      :    -0.000806
      py      :    -0.000079
      dz2     :    -0.000008  d :    -0.000034
      dxz     :     0.000010
      dyz     :     0.000000
      dx2y2   :    -0.000004
      dxy     :    -0.000032

  2 H s       :    -0.000011  s :    -0.000011
      pz      :     0.000000  p :    -0.000018
      px      :    -0.000015
      py      :    -0.000004

  3 H s       :    -0.000040  s :    -0.000040
      pz      :     0.000000  p :    -0.000001
      px      :    -0.000000
      py      :    -0.000001

  4 C s       :     0.000029  s :     0.000029
      pz      :    -0.000005  p :    -0.000180
      px      :    -0.000181
      py      :     0.000006
      dz2     :    -0.000001  d :     0.000000
      dxz     :     0.000003
      dyz     :    -0.000000
      dx2y2   :     0.000008
      dxy     :    -0.000011

  5 H s       :     0.000114  s :     0.000114
      pz      :     0.000000  p :     0.000001
      px      :     0.000000
      py      :     0.000001

  6 H s       :     0.000032  s :     0.000032
      pz      :     0.000000  p :     0.000007
      px      :     0.000006
      py      :     0.000001

  7 H s       :    -0.000710  s :    -0.000710
      pz      :     0.000000  p :    -0.000005
      px      :    -0.000005
      py      :    -0.000000

  8 H s       :    -0.000051  s :    -0.000051
      pz      :    -0.000002  p :    -0.000013
      px      :    -0.000012
      py      :     0.000001

  9 O s       :     0.008618  s :     0.008618
      pz      :     0.824213  p :     1.004176
      px      :     0.035109
      py      :     0.144854
      dz2     :    -0.000045  d :     0.000926
      dxz     :     0.000583
      dyz     :     0.000233
      dx2y2   :     0.000092
      dxy     :     0.000062

 10 H s       :    -0.024790  s :    -0.024790
      pz      :     0.012419  p :     0.013260
      px      :    -0.000196
      py      :     0.001037



                     *******************************
                     * LOEWDIN POPULATION ANALYSIS *
                     *******************************

-------------------------------------------
LOEWDIN ATOMIC CHARGES AND SPIN POPULATIONS
-------------------------------------------
   0 C :   -0.080543   -0.000549
   1 C :   -0.050858   -0.000946
   2 H :    0.037527   -0.000044
   3 H :    0.034486   -0.000014
   4 C :   -0.112632   -0.000045
   5 H :    0.054785    0.000047
   6 H :    0.050546    0.000014
   7 H :    0.053988   -0.000214
   8 H :    0.044596   -0.000042
   9 O :   -0.045686    0.973942
  10 H :    0.013792    0.027852

----------------------------------------------------
LOEWDIN REDUCED ORBITAL CHARGES AND SPIN POPULATIONS
----------------------------------------------------
CHARGE
  0 C s       :     0.830292  s :     0.830292
      pz      :     1.063218  p :     3.031370
      px      :     0.913399
      py      :     1.054754
      dz2     :     0.080786  d :     0.218882
      dxz     :     0.010731
      dyz     :     0.062980
      dx2y2   :     0.035894
      dxy     :     0.028492

  1 C s       :     0.815100  s :     0.815100
      pz      :     1.054999  p :     2.917967
      px      :     0.846501
      py      :     1.016466
      dz2     :     0.104943  d :     0.317791
      dxz     :     0.014591
      dyz     :     0.075375
      dx2y2   :     0.053279
      dxy     :     0.069603

  2 H s       :     0.808670  s :     0.808670
      pz      :     0.045910  p :     0.153803
      px      :     0.047833
      py      :     0.060061

  3 H s       :     0.812820  s :     0.812820
      pz      :     0.071351  p :     0.152695
      px      :     0.045252
      py      :     0.036092

  4 C s       :     0.767515  s :     0.767515
      pz      :     1.051995  p :     3.107977
      px      :     1.065659
      py      :     0.990323
      dz2     :     0.074490  d :     0.237140
      dxz     :     0.018986
      dyz     :     0.036293
      dx2y2   :     0.037718
      dxy     :     0.069654

  5 H s       :     0.793292  s :     0.793292
      pz      :     0.044756  p :     0.151922
      px      :     0.061779
      py      :     0.045387

  6 H s       :     0.800791  s :     0.800791
      pz      :     0.067588  p :     0.148663
      px      :     0.042724
      py      :     0.038351

  7 H s       :     0.793244  s :     0.793244
      pz      :     0.043359  p :     0.152769
      px      :     0.055790
      py      :     0.053619

  8 H s       :     0.805543  s :     0.805543
      pz      :     0.073268  p :     0.149861
      px      :     0.040506
      py      :     0.036087

  9 O s       :     1.636799  s :     1.636799
      pz      :     1.103527  p :     4.384474
      px      :     1.606341
      py      :     1.674606
      dz2     :     0.006053  d :     0.024412
      dxz     :     0.000327
      dyz     :     0.000247
      dx2y2   :     0.005065
      dxy     :     0.012721

 10 H s       :     0.642010  s :     0.642010
      pz      :     0.057700  p :     0.344198
      px      :     0.170092
      py      :     0.116406


SPIN
  0 C s       :    -0.000049  s :    -0.000049
      pz      :     0.000000  p :    -0.000404
      px      :    -0.000349
      py      :    -0.000056
      dz2     :    -0.000013  d :    -0.000096
      dxz     :    -0.000018
      dyz     :    -0.000005
      dx2y2   :    -0.000069
      dxy     :     0.000007

  1 C s       :    -0.000058  s :    -0.000058
      pz      :     0.000009  p :    -0.000799
      px      :    -0.000754
      py      :    -0.000055
      dz2     :    -0.000016  d :    -0.000088
      dxz     :     0.000007
      dyz     :    -0.000002
      dx2y2   :    -0.000014
      dxy     :    -0.000064

  2 H s       :    -0.000001  s :    -0.000001
      pz      :    -0.000002  p :    -0.000044
      px      :    -0.000032
      py      :    -0.000010

  3 H s       :     0.000001  s :     0.000001
      pz      :    -0.000003  p :    -0.000015
      px      :    -0.000012
      py      :    -0.000000

  4 C s       :    -0.000002  s :    -0.000002
      pz      :     0.000007  p :    -0.000036
      px      :    -0.000041
      py      :    -0.000002
      dz2     :    -0.000001  d :    -0.000007
      dxz     :     0.000005
      dyz     :    -0.000001
      dx2y2   :     0.000009
      dxy     :    -0.000021

  5 H s       :     0.000050  s :     0.000050
      pz      :    -0.000002  p :    -0.000003
      px      :    -0.000000
      py      :    -0.000001

  6 H s       :     0.000026  s :     0.000026
      pz      :     0.000001  p :    -0.000012
      px      :    -0.000013
      py      :    -0.000000

  7 H s       :    -0.000166  s :    -0.000166
      pz      :    -0.000002  p :    -0.000048
      px      :    -0.000045
      py      :    -0.000000

  8 H s       :     0.000019  s :     0.000019
      pz      :    -0.000008  p :    -0.000061
      px      :    -0.000051
      py      :    -0.000002

  9 O s       :     0.007999  s :     0.007999
      pz      :     0.797602  p :     0.966286
      px      :     0.029679
      py      :     0.139004
      dz2     :    -0.000090  d :    -0.000343
      dxz     :     0.000121
      dyz     :     0.000122
      dx2y2   :    -0.000121
      dxy     :    -0.000375

 10 H s       :    -0.019005  s :    -0.019005
      pz      :     0.039265  p :     0.046856
      px      :     0.002420
      py      :     0.005172



                      *****************************
                      * MAYER POPULATION ANALYSIS *
                      *****************************

  NA   - Mulliken gross atomic population
  ZA   - Total nuclear charge
  QA   - Mulliken gross atomic charge
  VA   - Mayer's total valence
  BVA  - Mayer's bonded valence
  FA   - Mayer's free valence

  ATOM       NA         ZA         QA         VA         BVA        FA
  0 C      4.0734     4.0000    -0.0734     3.9789     3.9789     0.0000
  1 C      4.0820     4.0000    -0.0820     4.0682     4.0682     0.0000
  2 H      0.9619     1.0000     0.0381     1.0396     1.0396     0.0000
  3 H      0.9671     1.0000     0.0329     1.0444     1.0444     0.0000
  4 C      4.0682     4.0000    -0.0682     3.9843     3.9843     0.0000
  5 H      0.9500     1.0000     0.0500     1.0322     1.0322     0.0000
  6 H      0.9658     1.0000     0.0342     1.0407     1.0407    -0.0000
  7 H      0.9475     1.0000     0.0525     1.0319     1.0319     0.0000
  8 H      0.9724     1.0000     0.0276     1.0442     1.0442     0.0000
  9 O      6.1916     6.0000    -0.1916     2.0266     1.0526     0.9740
 10 H      0.8200     1.0000     0.1800     1.0837     1.0827     0.0009

  Mayer bond orders larger than 0.100000
B(  0-C ,  1-C ) :   1.9244 B(  0-C ,  2-H ) :   0.9977 B(  0-C ,  3-H ) :   0.9979 
B(  1-C ,  4-C ) :   1.0331 B(  1-C ,  8-H ) :   1.0038 B(  4-C ,  5-H ) :   0.9805 
B(  4-C ,  6-H ) :   0.9898 B(  4-C ,  7-H ) :   0.9752 B(  9-O , 10-H ) :   1.0517 


-------
TIMINGS
-------

Total SCF time: 0 days 0 hours 0 min 53 sec 

Total time                  ....      53.557 sec
Sum of individual times     ....      51.312 sec  ( 95.8%)

SCF preparation             ....       0.070 sec  (  0.1%)
Fock matrix formation       ....      51.100 sec  ( 95.4%)
  Startup                   ....       0.004 sec  (  0.0% of F)
  Split-RI-J                ....       1.711 sec  (  3.3% of F)
  Chain of spheres X        ....      45.910 sec  ( 89.8% of F)
  XC integration            ....       5.545 sec  ( 10.9% of F)
    XC Preparation          ....       0.000 sec  (  0.0% of XC)
    Basis function eval.    ....       1.870 sec  ( 33.7% of XC)
    Density eval.           ....       0.824 sec  ( 14.9% of XC)
    XC-Functional eval.     ....       1.422 sec  ( 25.6% of XC)
    XC-Potential eval.      ....       1.244 sec  ( 22.4% of XC)
Diagonalization             ....       0.000 sec  (  0.0%)
Density matrix formation    ....       0.038 sec  (  0.1%)
Total Energy calculation    ....       0.005 sec  (  0.0%)
Population analysis         ....       0.005 sec  (  0.0%)
Orbital Transformation      ....       0.011 sec  (  0.0%)
Orbital Orthonormalization  ....       0.000 sec  (  0.0%)
DIIS solution               ....       0.031 sec  (  0.1%)
SOSCF solution              ....       0.050 sec  (  0.1%)
Finished LeanSCF after  53.6 sec

Maximum memory used throughout the entire LEANSCF-calculation: 14.0 MB


-------------------------------------------------------------------------------
                          DFT DISPERSION CORRECTION                            
                                                                               
                                DFTD4 V3.4.0                                   
-------------------------------------------------------------------------------
The wB97X-3c composite method is recognized
Using three-body term ABC
Active option DFTDOPT                   ...         5   

-------------------------   ----------------
Dispersion correction           -0.006310674
-------------------------   ----------------


-------------------------   --------------------
FINAL SINGLE POINT ENERGY       -37.261531740032
-------------------------   --------------------

------------------------------------------------------------------------------
                         ORCA SCF GRADIENT CALCULATION
------------------------------------------------------------------------------

Nuc. rep. gradient        (SHARK) ... done (  0.0 sec)
HCore & Overlap gradient  (SHARK) ... done (  0.1 sec)
ECP gradient              (SHARK) ... done (  0.2 sec)
Split-RIJ-J gradient      (SHARK) ... done (  0.6 sec)
done ( 15.4 sec)
XC gradient                       ... done (  1.6 sec)
Dispersion correction             ... done (  0.0 sec)

-------------------
DISPERSION GRADIENT
-------------------

   1   C   :   -0.000090013    0.000370812   -0.000041261
   2   C   :   -0.000164389    0.000049986    0.000103365
   3   H   :   -0.000006953    0.000089671    0.000003297
   4   H   :   -0.000012028    0.000092397   -0.000053751
   5   C   :   -0.000184781   -0.000299241   -0.000031526
   6   H   :   -0.000048688   -0.000073089    0.000001810
   7   H   :   -0.000041200   -0.000079737   -0.000046030
   8   H   :   -0.000028014   -0.000102937   -0.000000313
   9   H   :   -0.000025394    0.000017187    0.000076683
  10   O   :    0.000360729   -0.000000768   -0.000016075
  11   H   :    0.000240731   -0.000064283    0.000003802

Difference to translation invariance:
           :   -0.0000000000    0.0000000000    0.0000000000

Difference to rotation invariance:
           :    0.0000000000    0.0000000000   -0.0000000000

Norm of the Dispersion gradient    ...    0.0007486259
RMS gradient                       ...    0.0001303190
MAX gradient                       ...    0.0003708119

------------------
CARTESIAN GRADIENT
------------------

   1   C   :    0.000936688    0.004258416   -0.001448291
   2   C   :   -0.000025050   -0.000463375    0.002762054
   3   H   :   -0.000107701    0.000190454   -0.000695535
   4   H   :    0.000064744    0.000586951    0.000179695
   5   C   :   -0.000381885   -0.001170067   -0.000331876
   6   H   :   -0.001470771   -0.001333470    0.000446570
   7   H   :   -0.000083608   -0.000288804   -0.001134890
   8   H   :    0.000942296   -0.001414000    0.000133889
   9   H   :   -0.000087455   -0.000294393    0.000214294
  10   O   :    0.002920718   -0.001935183    0.000486338
  11   H   :   -0.002707976    0.001863472   -0.000612248

Difference to translation invariance:
           :    0.0000000000    0.0000000000   -0.0000000000

Difference to rotation invariance:
           :   -0.0000247528    0.0000705713   -0.0000091592

Norm of the Cartesian gradient     ...    0.0079842436
RMS gradient                       ...    0.0013898784
MAX gradient                       ...    0.0042584160

-------
TIMINGS
-------

Total SCF gradient time     ....       17.921 sec

Densities                   ....       0.000 sec  (  0.0%)
One electron gradient       ....       0.084 sec  (  0.5%)
RI-J Coulomb gradient       ....       0.623 sec  (  3.5%)
COSX gradient               ....      15.445 sec  ( 86.2%)
XC gradient                 ....       1.573 sec  (  8.8%)

Maximum memory used throughout the entire SCFGRAD-calculation: 29.9 MB
------------------------------------------------------------------------------
                         ORCA GEOMETRY RELAXATION STEP
------------------------------------------------------------------------------

Reading the OPT-File                    .... done
Getting information on internals        .... done
Copying old internal coords+grads       .... done
Making the new internal coordinates     .... (2022 redundants) done
Validating the new internal coordinates .... (2022 redundants) done
Calculating the B-matrix                .... done
Calculating the G,G- and P matrices     .... done
Transforming gradient to internals      .... done
Projecting the internal gradient        .... done
Number of atoms                         ....  11
Number of internal coordinates          .... 148
Current Energy                          ....   -37.261531740 Eh
Current gradient norm                   ....     0.007984244 Eh/bohr
Maximum allowed component of the step   ....  0.300
Current trust radius                    ....  0.300
Evaluating the initial hessian          ....  (Almloef) done
Projecting the Hessian                  .... done
Forming the augmented Hessian           .... done
Diagonalizing the augmented Hessian     .... done
Last element of RFO vector              ....  0.999510465
Lowest eigenvalues of augmented Hessian:
 -0.000138400  0.016465112  0.017916333  0.020504301  0.031400557
Length of the computed step             ....  0.031301584
The final length of the internal step   ....  0.031301584
Converting the step to Cartesian space:
 Initial RMS(Int)=    0.0025729744
Transforming coordinates:
 Iter   0:  RMS(Cart)=    0.0056398613 RMS(Int)=    0.0025735586
done
Storing new coordinates                 .... done

                                .--------------------.
          ----------------------|Geometry convergence|-------------------------
          Item                value                   Tolerance       Converged
          ---------------------------------------------------------------------
          RMS gradient        0.0005452372            0.0001000000      NO
          MAX gradient        0.0035149603            0.0003000000      NO
          RMS step            0.0025729744            0.0020000000      NO
          MAX step            0.0113076588            0.0040000000      NO
          -------------------------------------------------------------------------
          ........................................................
          Max(Bonds)      0.0060      Max(Angles)    0.15
          Max(Dihed)        0.28      Max(Improp)    0.00
          ---------------------------------------------------------------------

The optimization has not yet converged - more geometry cycles are needed


    ---------------------------------------------------------------------------
                         Redundant Internal Coordinates
                            (Angstroem and degrees)

        Definition                    Value    dE/dq     Step     New-Value
    ----------------------------------------------------------------------------
     1. B(C   1,C   0)                1.3299  0.002591 -0.0035    1.3264   
     2. B(H   2,C   0)                1.0819 -0.000538  0.0003    1.0822   
     3. B(H   3,C   0)                1.0840 -0.000169  0.0002    1.0842   
     4. B(C   4,C   1)                1.4962  0.002363 -0.0050    1.4912   
     5. B(H   5,C   4)                1.0928  0.001906 -0.0028    1.0899   
     6. B(H   6,C   4)                1.0900  0.001120 -0.0016    1.0883   
     7. B(H   7,C   4)                1.0927  0.000861 -0.0022    1.0905   
     8. B(H   8,C   1)                1.0864  0.000056 -0.0003    1.0861   
     9. B(H  10,H   7)                2.8429  0.000751 -0.0058    2.8371   
    10. B(H  10,H   8)                2.8416  0.000216 -0.0037    2.8378   
    11. B(H  10,H   3)                2.8171  0.000261 -0.0036    2.8135   
    12. B(H  10,C   0)                2.4703  0.000317 -0.0038    2.4665   
    13. B(H  10,C   1)                2.4588 -0.000022 -0.0037    2.4551   
    14. B(H  10,H   2)                2.8754  0.000393 -0.0041    2.8713   
    15. B(H  10,O   9)                0.9796  0.003515 -0.0038    0.9758   
    16. B(H  10,C   4)                3.0263  0.001087 -0.0060    3.0203   
    17. A(C   1,C   0,H   2)          121.62  0.000143   -0.09    121.53   
    18. A(H   3,C   0,H  10)           97.07  0.000029   -0.01     97.06   
    19. A(H   2,C   0,H   3)          116.83 -0.000238    0.13    116.95   
    20. A(C   1,C   0,H   3)          121.54  0.000100   -0.04    121.50   
    21. A(C   1,C   0,H  10)           73.87 -0.000400    0.02     73.89   
    22. A(H   2,C   0,H  10)          100.73  0.000224   -0.04    100.68   
    23. A(C   4,C   1,H  10)           96.82 -0.000127    0.01     96.83   
    24. A(C   0,C   1,H   8)          118.59  0.000035    0.03    118.61   
    25. A(C   4,C   1,H   8)          115.92 -0.000081    0.12    116.04   
    26. A(C   0,C   1,H  10)           74.82 -0.000159    0.01     74.84   
    27. A(C   0,C   1,C   4)          125.49  0.000046   -0.15    125.35   
[...]
      pz      :     0.000000  p :     0.000001
      px      :     0.000000
      py      :     0.000000

  6 H s       :     0.000010  s :     0.000010
      pz      :     0.000000  p :     0.000006
      px      :     0.000005
      py      :     0.000001

  7 H s       :    -0.000571  s :    -0.000571
      pz      :     0.000000  p :     0.000000
      px      :    -0.000000
      py      :     0.000000

  8 H s       :    -0.000026  s :    -0.000026
      pz      :    -0.000001  p :    -0.000013
      px      :    -0.000013
      py      :     0.000002

  9 O s       :     0.008643  s :     0.008643
      pz      :     0.822641  p :     1.003655
      px      :     0.052828
      py      :     0.128186
      dz2     :    -0.000047  d :     0.000935
      dxz     :     0.000607
      dyz     :     0.000218
      dx2y2   :     0.000101
      dxy     :     0.000055

 10 H s       :    -0.024380  s :    -0.024380
      pz      :     0.012517  p :     0.013408
      px      :     0.000193
      py      :     0.000697



                     *******************************
                     * LOEWDIN POPULATION ANALYSIS *
                     *******************************

-------------------------------------------
LOEWDIN ATOMIC CHARGES AND SPIN POPULATIONS
-------------------------------------------
   0 C :   -0.077734   -0.000667
   1 C :   -0.052456   -0.000990
   2 H :    0.038119   -0.000046
   3 H :    0.035476   -0.000013
   4 C :   -0.111634   -0.000047
   5 H :    0.054722    0.000025
   6 H :    0.051116    0.000021
   7 H :    0.053563   -0.000164
   8 H :    0.044873   -0.000044
   9 O :   -0.043862    0.973264
  10 H :    0.007816    0.028661

----------------------------------------------------
LOEWDIN REDUCED ORBITAL CHARGES AND SPIN POPULATIONS
----------------------------------------------------
CHARGE
  0 C s       :     0.829068  s :     0.829068
      pz      :     1.063103  p :     3.028355
      px      :     0.911355
      py      :     1.053897
      dz2     :     0.081537  d :     0.220310
      dxz     :     0.011345
      dyz     :     0.062537
      dx2y2   :     0.035908
      dxy     :     0.028983

  1 C s       :     0.812642  s :     0.812642
      pz      :     1.054567  p :     2.918931
      px      :     0.847642
      py      :     1.016722
      dz2     :     0.106270  d :     0.320883
      dxz     :     0.015160
      dyz     :     0.075490
      dx2y2   :     0.054666
      dxy     :     0.069297

  2 H s       :     0.808321  s :     0.808321
      pz      :     0.045794  p :     0.153560
      px      :     0.047767
      py      :     0.059999

  3 H s       :     0.812158  s :     0.812158
      pz      :     0.071357  p :     0.152366
      px      :     0.044932
      py      :     0.036077

  4 C s       :     0.765048  s :     0.765048
      pz      :     1.051259  p :     3.107460
      px      :     1.063903
      py      :     0.992298
      dz2     :     0.075597  d :     0.239127
      dxz     :     0.018293
      dyz     :     0.036699
      dx2y2   :     0.041021
      dxy     :     0.067517

  5 H s       :     0.792498  s :     0.792498
      pz      :     0.044688  p :     0.152780
      px      :     0.062852
      py      :     0.045239

  6 H s       :     0.800013  s :     0.800013
      pz      :     0.067653  p :     0.148871
      px      :     0.042660
      py      :     0.038558

  7 H s       :     0.793366  s :     0.793366
      pz      :     0.043825  p :     0.153071
      px      :     0.054619
      py      :     0.054627

  8 H s       :     0.805349  s :     0.805349
      pz      :     0.073111  p :     0.149778
      px      :     0.040538
      py      :     0.036129

  9 O s       :     1.634212  s :     1.634212
      pz      :     1.104727  p :     4.385176
      px      :     1.562057
      py      :     1.718391
      dz2     :     0.006100  d :     0.024474
      dxz     :     0.000333
      dyz     :     0.000176
      dx2y2   :     0.008702
      dxy     :     0.009162

 10 H s       :     0.642176  s :     0.642176
      pz      :     0.058456  p :     0.350008
      px      :     0.178670
      py      :     0.112882


SPIN
  0 C s       :    -0.000054  s :    -0.000054
      pz      :     0.000011  p :    -0.000499
      px      :    -0.000457
      py      :    -0.000053
      dz2     :    -0.000015  d :    -0.000114
      dxz     :    -0.000011
      dyz     :    -0.000004
      dx2y2   :    -0.000088
      dxy     :     0.000004

  1 C s       :    -0.000061  s :    -0.000061
      pz      :     0.000003  p :    -0.000837
      px      :    -0.000782
      py      :    -0.000058
      dz2     :    -0.000016  d :    -0.000092
      dxz     :    -0.000002
      dyz     :    -0.000001
      dx2y2   :    -0.000004
      dxy     :    -0.000069

  2 H s       :    -0.000007  s :    -0.000007
      pz      :    -0.000002  p :    -0.000038
      px      :    -0.000026
      py      :    -0.000011

  3 H s       :     0.000016  s :     0.000016
      pz      :    -0.000004  p :    -0.000029
      px      :    -0.000024
      py      :    -0.000001

  4 C s       :     0.000002  s :     0.000002
      pz      :     0.000008  p :    -0.000017
      px      :    -0.000029
      py      :     0.000004
      dz2     :     0.000000  d :    -0.000032
      dxz     :     0.000004
      dyz     :    -0.000001
      dx2y2   :     0.000006
      dxy     :    -0.000041

  5 H s       :     0.000027  s :     0.000027
      pz      :    -0.000001  p :    -0.000001
      px      :    -0.000000
      py      :    -0.000000

  6 H s       :     0.000028  s :     0.000028
      pz      :     0.000001  p :    -0.000008
      px      :    -0.000009
      py      :     0.000000

  7 H s       :    -0.000136  s :    -0.000136
      pz      :    -0.000001  p :    -0.000028
      px      :    -0.000026
      py      :    -0.000001

  8 H s       :     0.000009  s :     0.000009
      pz      :    -0.000008  p :    -0.000053
      px      :    -0.000043
      py      :    -0.000002

  9 O s       :     0.008003  s :     0.008003
      pz      :     0.795787  p :     0.965596
      px      :     0.046119
      py      :     0.123690
      dz2     :    -0.000092  d :    -0.000335
      dxz     :     0.000131
      dyz     :     0.000116
      dx2y2   :    -0.000232
      dxy     :    -0.000258

 10 H s       :    -0.018746  s :    -0.018746
      pz      :     0.039619  p :     0.047407
      px      :     0.003636
      py      :     0.004152



                      *****************************
                      * MAYER POPULATION ANALYSIS *
                      *****************************

  NA   - Mulliken gross atomic population
  ZA   - Total nuclear charge
  QA   - Mulliken gross atomic charge
  VA   - Mayer's total valence
  BVA  - Mayer's bonded valence
  FA   - Mayer's free valence

  ATOM       NA         ZA         QA         VA         BVA        FA
  0 C      4.0740     4.0000    -0.0740     3.9806     3.9806     0.0000
  1 C      4.0820     4.0000    -0.0820     4.0703     4.0703     0.0000
  2 H      0.9613     1.0000     0.0387     1.0397     1.0397     0.0000
  3 H      0.9662     1.0000     0.0338     1.0444     1.0444     0.0000
  4 C      4.0632     4.0000    -0.0632     3.9852     3.9852     0.0000
  5 H      0.9509     1.0000     0.0491     1.0327     1.0327     0.0000
  6 H      0.9665     1.0000     0.0335     1.0413     1.0413    -0.0000
  7 H      0.9497     1.0000     0.0503     1.0320     1.0320     0.0000
  8 H      0.9728     1.0000     0.0272     1.0445     1.0445     0.0000
  9 O      6.1902     6.0000    -0.1902     2.0271     1.0534     0.9737
 10 H      0.8232     1.0000     0.1768     1.0878     1.0868     0.0009

  Mayer bond orders larger than 0.100000
B(  0-C ,  1-C ) :   1.9239 B(  0-C ,  2-H ) :   0.9974 B(  0-C ,  3-H ) :   0.9977 
B(  1-C ,  4-C ) :   1.0341 B(  1-C ,  8-H ) :   1.0031 B(  4-C ,  5-H ) :   0.9794 
B(  4-C ,  6-H ) :   0.9894 B(  4-C ,  7-H ) :   0.9756 B(  9-O , 10-H ) :   1.0530 


-------
TIMINGS
-------

Total SCF time: 0 days 0 hours 0 min 32 sec 

Total time                  ....      32.923 sec
Sum of individual times     ....      30.704 sec  ( 93.3%)

SCF preparation             ....       0.076 sec  (  0.2%)
Fock matrix formation       ....      30.551 sec  ( 92.8%)
  Startup                   ....       0.002 sec  (  0.0% of F)
  Split-RI-J                ....       0.913 sec  (  3.0% of F)
  Chain of spheres X        ....      28.921 sec  ( 94.7% of F)
  XC integration            ....       2.786 sec  (  9.1% of F)
    Basis function eval.    ....       0.984 sec  ( 35.3% of XC)
    Density eval.           ....       0.434 sec  ( 15.6% of XC)
    XC-Functional eval.     ....       0.756 sec  ( 27.1% of XC)
    XC-Potential eval.      ....       0.517 sec  ( 18.6% of XC)
Diagonalization             ....       0.000 sec  (  0.0%)
Density matrix formation    ....       0.011 sec  (  0.0%)
Total Energy calculation    ....       0.004 sec  (  0.0%)
Population analysis         ....       0.025 sec  (  0.1%)
Orbital Transformation      ....       0.007 sec  (  0.0%)
Orbital Orthonormalization  ....       0.000 sec  (  0.0%)
DIIS solution               ....       0.006 sec  (  0.0%)
SOSCF solution              ....       0.024 sec  (  0.1%)
Finished LeanSCF after  33.0 sec

Maximum memory used throughout the entire LEANSCF-calculation: 14.8 MB


-------------------------------------------------------------------------------
                          DFT DISPERSION CORRECTION                            
                                                                               
                                DFTD4 V3.4.0                                   
-------------------------------------------------------------------------------
The wB97X-3c composite method is recognized
Using three-body term ABC
Active option DFTDOPT                   ...         5   

-------------------------   ----------------
Dispersion correction           -0.006313092
-------------------------   ----------------


-------------------------   --------------------
FINAL SINGLE POINT ENERGY       -37.261697425136
-------------------------   --------------------

                                *** OPTIMIZATION RUN DONE ***


------------------------------------------------------------------------------
                              ORCA PROPERTY CALCULATIONS
------------------------------------------------------------------------------

GBWName                                 ... opt.gbw
Number of atoms                         ...     11
Number of basis functions               ...     87
Max core memory                         ...   4096 MB

Electric properties:
Dipole moment                           ... YES
Quadrupole moment                       ...  NO
Static polarizability (Dipole/Dipole)   ...  NO
Static polarizability (Dipole/Quad.)    ...  NO
Static polarizability (Quad./Quad.)     ...  NO
Static polarizability (Velocity)        ...  NO
Static hyperpolarizability              ...  NO

Atomic electric properties:
Dipole moment                           ...  NO
Quadrupole moment                       ...  NO
Static polarizability                   ...  NO

Choice of electric origin               ... Center of mass
Position of electric origin             ...     0.141758     0.049782    -0.013171

General magnetic properties:
Magnetizability                         ...  NO

EPR properties:
g-Tensor (aka g-matrix)                 ...  NO
Zero-Field splitting spin-orbit         ...  NO
Zero-field splitting spin-spin          ...  NO
Hyperfine couplings                     ...  NO (   0 nuclei)
Quadrupole couplings                    ...  NO (   0 nuclei)
Contact density                         ...  NO (   0 nuclei)

NMR properties:
Chemical shifts                         ...  NO (   0 nuclei)
Spin-rotation constants                 ...  NO (   0 nuclei)
Spin-spin couplings                     ...  NO (   0 nuclei,    0 pairs)

Choice of magnetic origin               ... GIAO
Position of magnetic origin             ...     0.000000     0.000000     0.000000

Properties with geometric perturbations:
SCF Hessian                             ...  NO
IR spectrum                             ...  NO
VCD spectrum                            ...  NO
X-ray spectroscopy properties:
SCF XES/XAS/RIXS spectra                ...  NO

SCF SOC stabilization energy            ...  NO
Diagonal Born-Oppenheimer correction    ...  NO

-------------
DIPOLE MOMENT
-------------

Method             : SCF
Type of density    : Electron Density
Multiplicity       :   2
Irrep              :   0
Energy             :   -37.2553843334875125 Eh
Basis              : AO
                                X                 Y                 Z
Electronic contribution:      1.716633742       1.078373345       0.589816568
Nuclear contribution   :     -2.609476796      -0.983164793      -0.517686698
                        -----------------------------------------
Total Dipole Moment    :     -0.892843054       0.095208552       0.072129870
                        -----------------------------------------
Magnitude (a.u.)       :      0.900797483
Magnitude (Debye)      :      2.289645240



--------------------
Rotational spectrum 
--------------------
 
Rotational constants in cm-1:             0.283849             0.116443             0.090706 
Rotational constants in MHz :          8509.564006          3490.874827          2719.288185 

Dipole components along the rotational axes: 
x,y,z [a.u.] :     0.890922     0.123643     0.049059 
x,y,z [Debye]:     2.264543     0.314277     0.124698 

 

Dipole moment calculation done in   0.1 sec 

Maximum memory used throughout the entire PROP-calculation: 8.0 MB

--------------------------------
SUGGESTED CITATIONS FOR THIS RUN
--------------------------------

Below you find a list of papers that are relevant to this ORCA run
We neither can nor want to force you to cite these papers, but we appreciate if you do
You receive ORCA, which is the product of decades of hard work by many enthusiastic individuals, for free
The only thing we kindly ask in return is that you cite our papers,
We deeply appreciate it, if you show your appreciation for ORCA by not just citing the generic ORCA reference.

Please note that relegating all ORCA citations to the supporting information does *not* help us.
SI sections are not indexed - citations you put there will not count into any citation statistics
But we need these citations in order to attract the funding resources that allow us to do what we are doing

Therefore, if you are a happy ORCA user, please consider citing a few of the papers listed below in the main body of your paper

In addition to the list printed below, the program has created the file opt.bibtex that contains the list in bibtex format
You can import this file easily into all common literature databanks and citation aid programs


List of essential papers. We consider these as the minimum necessary citations

  1. Mueller, M.; Hansen, A.; Grimme, S.
     wB97X-3c: A composite range-separated hybrid DFT method with a molecule-optimized polarized valence double-zeta basis set
     J. Chem. Phys. 2023 158 , 014103
     doi.org/10.1063/5.0133026
  2. Neese, F.
     Software update: the ORCA program system, version 6.0
     WIRES Comput. Molec. Sci. 2025 15(1), e70019
     doi.org/10.1002/wcms.7019

List of papers to cite with high priority. The work reported in these papers was absolutely
necessary for this run to complete.
Our perspective: the developers of density functionals and basis sets usually get cited in chemistry papers
Good! But without the algorithms to do something with them, the functionals or basis sets would not do anything.
Hence, in our opinion, the algorithm design and method developments papers are equally worthy of getting cited

  1. Neese, F.
     An improvement of the resolution of the identity approximation for the formation of the Coulomb matrix
     J. Comp. Chem. 2003 24(14), 1740-1747
     doi.org/10.1002/jcc.10318
  2. Neese, F.; Wennmohs, F.; Hansen, A.; Becker, U.
     Efficient, approximate and parallel Hartree-Fock and hybrid DFT calculations. A 'chain-of-spheres' algorithm for the Hartree-Fock exchange
     Chem. Phys. 2009 356(1-3), 98-109
     doi.org/10.1016/j.chemphys.2008.10.036
  3. Caldeweyher, E.; Bannwarth, C.; Grimme, S.
     Extension of the D3 dispersion coefficient model
     J. Chem. Phys. 2017 147 , 034112
     doi.org/10.1063/1.4993215
  4. Caldeweyher, E.; Ehlert, S.; Hansen, A.; Neugebauer, H.; Spicher, S.; Bannwarth, C.; Grimme, S.
     A generally applicable atomic-charge dependent London dispersion correction
     J. Chem. Phys. 2019 150 , 154122
     doi.org/10.1063/1.5090222
  5. Caldeweyher, E.; Mewes, J.; Ehlert, S.; Grimme, S.
     Extension and evaluation of the D4 London-dispersion model for periodic systems
     Phys. Chem. Chem. Phys. 2020 22(16), 8499-8512
     doi.org/10.1039/D0CP00502A
  6. Helmich-Paris, B.; de Souza, B.; Neese, F.; Izsák, R.
     An improved chain of spheres for exchange algorithm
     J. Chem. Phys. 2021 155(10), 104109
     doi.org/10.1063/5.0058766
  7. Neese, F.
     The SHARK Integral Generation and Digestion System
     J. Comp. Chem. 2022 44(3), 381
     doi.org/10.1002/jcc.26942
  8. Wittmann, L.; Gordiy, I.; Friede, M.; Helmich-Paris, B.; Grimme, S.; Hansen, A.; Bursch, M.
     Extension of the D3 and D4 London Dispersion Corrections to the full Actinides Series
     Phys. Chem. Chem. Phys. 2024 26(32), 21379-21394
     doi.org/10.1039/D4CP01514B

List of suggested additional citations. These are papers that are important in the 'surrounding' of 
of this run, or papers that preceded the highly important papers. If you like your results we are grateful for a citation.

  1. Izsak, R.; Neese, F.
     An overlap fitted chain of spheres exchange method
     J. Chem. Phys. 2011 135 , 144105
     doi.org/10.1063/1.3646921
  2. Izsak, R.; Hansen, A.; Neese, F.
     The resolution of identity and chain of spheres approximations for the LPNO-CCSD singles Fock term
     Molec. Phys. 2012 110 , 2413-2417
     doi.org/10.1080/00268976.2012.687466
  3. Neese, F.
     The ORCA program system
     WIRES Comput. Molec. Sci. 2012 2(1), 73-78
     doi.org/10.1002/wcms.81
  4. Izsak, R.; Neese, F.; Klopper, W.
     Robust fitting techniques in the chain of spheres approximation to the Fock exchange: The role of the complementary space
     J. Chem. Phys. 2013 139 , 
     doi.org/10.1063/1.4819264
  5. Neese, F.
     Software update: the ORCA program system, version 4.0
     WIRES Comput. Molec. Sci. 2018 8(1), 1-6
     doi.org/10.1002/wcms.1327
  6. Neese, F.; Wennmohs, F.; Becker, U.; Riplinger, C.
     The ORCA quantum chemistry program package
     J. Chem. Phys. 2020 152(22), 224108
     doi.org/10.1063/5.0004608
  7. Neese, F.
     Software update: The ORCA program system—Version 5.0
     WIRES Comput. Molec. Sci. 2022 12(1), e1606
     doi.org/10.1002/wcms.1606

List of optional additional citations

  1. Neese, F.
     Approximate second-order SCF convergence for spin unrestricted wavefunctions
     Chem. Phys. Lett. 2000 325(1-3), 93-98
     doi.org/10.1016/s0009-2614(00)00662-x

Timings for individual modules:

Sum of individual times          ...     1003.874 sec (=  16.731 min)
Startup calculation              ...       13.318 sec (=   0.222 min)   1.3 %
SCF iterations                   ...      664.691 sec (=  11.078 min)  66.2 %
Property calculations            ...        0.339 sec (=   0.006 min)   0.0 %
SCF Gradient evaluation          ...      325.385 sec (=   5.423 min)  32.4 %
Geometry relaxation              ...        0.141 sec (=   0.002 min)   0.0 %
                             ****ORCA TERMINATED NORMALLY****
TOTAL RUN TIME: 0 days 0 hours 16 minutes 45 seconds 405 msec
