
                                 *****************
                                 * O   R   C   A *
                                 *****************

                                            #,                                       
                                            ###                                      
                                            ####                                     
                                            #####                                    
                                            ######                                   
                                           ########,                                 
                                     ,,################,,,,,                         
                               ,,#################################,,                 
                          ,,##########################################,,             
                       ,#########################################, ''#####,          
                    ,#############################################,,   '####,        
                  ,##################################################,,,,####,       
                ,###########''''           ''''###############################       
              ,#####''   ,,,,##########,,,,          '''####'''          '####       
            ,##' ,,,,###########################,,,                        '##       
           ' ,,###''''                  '''############,,,                           
         ,,##''                                '''############,,,,        ,,,,,,###''
      ,#''                                            '''#######################'''  
     '                                                          ''''####''''         
             ,#######,   #######,   ,#######,      ##                                
            ,#'     '#,  ##    ##  ,#'     '#,    #''#        ,####,    ,#,          
            ##       ##  ##   ,#'  ##            #'  '#       #'       ,# #          
            ##       ##  #######   ##           ,######,      #####,      #          
            '#,     ,#'  ##    ##  '#,     ,#' ,#      #,     #,   #      #          
             '#######'   ##     ##  '#######'  #'      '#     '####' #    #          



                #########################################################
                #                        -***-                          #
                #          Department of theory and spectroscopy        #
                #                                                       #
                #                      Frank Neese                      #
                #                                                       #
                #     Directorship, Architecture, Infrastructure        #
                #                    SHARK, DRIVERS                     #
                #        Core code/Algorithms in most modules           #
                #                                                       #
                #        Max Planck Institute fuer Kohlenforschung      #
                #                Kaiser Wilhelm Platz 1                 #
                #                 D-45470 Muelheim/Ruhr                 #
                #                      Germany                          #
                #                                                       #
                #                  All rights reserved                  #
                #                        -***-                          #
                #########################################################


                         Program Version 6.1.0  -  RELEASE   -
                                (GIT: $679e74b$)
                          ($2025-06-10 18:02:51 +0200$)


 With contributions from (in alphabetic order):
[Max-Planck-Institut fuer Kohlenforschung]                               
  Daniel Aravena         : Magnetic Suceptibility                        
  Michael Atanasov       : Ab Initio Ligand Field Theory (pilot matlab implementation)
  Alexander A. Auer      : GIAO ZORA, VPT2 properties, NMR spectrum      
  Ute Becker             : All parallelization in ORCA, NUMFREQ, NUMCALC 
  Giovanni Bistoni       : ED, misc. LED, open-shell LED, HFLD           
  Dmytro Bykov           : pre 5.0 version of the SCF Hessian            
  Marcos Casanova-Páez   : Triplet and SCS-CIS(D). UHF-(DLPNO)-IP/EA/STEOM-CCSD. UHF-CVS-IP/STEOM-CCSD   
  Vijay G. Chilkuri      : MRCI spin determinant printing, contributions to CSF-ICE 
  Pauline Colinet        : FMM embedding                                 
  Dipayan Datta          : RHF DLPNO-CCSD density                        
  Achintya Kumar Dutta   : EOM-CC, STEOM-CC                              
  Nicolas Foglia         : Exact transition moments, OPA infrastructure, MCD improvements    
  Dmitry Ganyushin       : Spin-Orbit,Spin-Spin,Magnetic field MRCI      
  Miquel Garcia-Rates    : C-PCM and meta-GGA Hessian, CCSD/C-PCM, Gaussian charge scheme 
  Tiago L. C. Gouveia    : GS-ROHF, GS-ROCIS                             
  Yang Guo               : DLPNO-NEVPT2, F12-NEVPT2, CIM, IAO-localization        
  Andreas Hansen         : Spin unrestricted coupled pair/coupled cluster methods 
  Ingolf Harden          : AUTO-CI MPn and infrastructure                
  Benjamin Helmich-Paris : MC-RPA, TRAH-(SCF,CASSCF), AVAS, COSX integrals, SCF dyn. polar., MC-PDFT, srDFT 
  Lee Huntington         : MR-EOM, pCC                                   
  Robert Izsak           : Overlap fitted RIJCOSX, COSX-SCS-MP3, EOM     
  Riya Kayal             : Wick's Theorem for AUTO-CI, AUTO-CI UHF-CCSDT 
  Emily Kempfer          : AUTO-CI RHF CISDT and CCSDT, approximate NEVPT4
  Christian Kollmar      : KDIIS, OOCD, Brueckner-CCSD(T), CCSD density, CASPT2, CASPT2-K, improved NEVPT2 
  Axel Koslowski         : Symmetry handling                             
  Simone Kossmann        : meta-GGA functionals, TD-DFT gradient, OOMP2, (MP2 Hessian; deprecated post 5.0) 
  Lucas Lang             : DCDCAS, Hyperfine gauge corrections, ICE-SOC+SSC
  Marvin Lechner         : AUTO-CI (C++ implementation), FIC-MRCC        
  Spencer Leger          : CASSCF response                               
  Dagmar Lenk            : GEPOL surface, SMD, ORCA-2-JSON               
  Dimitrios Liakos       : Extrapolation schemes; Compound Job, Property file
  Dimitrios Manganas     : Further ROCIS development; embedding schemes. LFT, Crystal Embedding 
  Dimitrios Pantazis     : SARC Basis sets                               
  Anastasios Papadopoulos: AUTO-CI, single reference methods and gradients 
  Taras Petrenko         : pre 6.0 DFT Hessian and TD-DFT gradient,  ECA, NRVS 
  Petra Pikulova         : Analytic Raman intensities                    
  Peter Pinski           : DLPNO-MP2, DLPNO-MP2 Gradient                 
  Shashank Vittal Rao    : ES-AILFT, MagRelax                            
  Christoph Reimann      : Effective Core Potentials                     
  Marius Retegan         : Local ZFS, SOC                                
  Christoph Riplinger    : Optimizer, TS searches, QM/MM, DLPNO-CCSD(T), (RO)-DLPNO pert. Triples 
  Michael Roemelt        : Original ROCIS implementation, recursive CI coupling coefficients
  Masaaki Saitow         : Open-shell DLPNO-CCSD energy and density      
  Barbara Sandhoefer     : DKH picture change effects                    
  Yorick L. A. Schmerwitz: GMF and freeze-and-release deltaSCF, NEB S-IDPP initial path                    
  Kantharuban Sivalingam : CASSCF convergence/infrastructure, NEVPT2, NEVPT3, NEVPT4(SD), FIC-MRCI and CEPA variants
  Bernardo de Souza      : ESD, SOC TD-DFT                               
  Georgi L. Stoychev     : AutoAux, RI-MP2 NMR, DLPNO-MP2 response, X2C  
  Van Anh Tran           : RI-MP2 g-tensors                              
  Willem Van den Heuvel  : Paramagnetic NMR                              
  Zikuan Wang            : NOTCH, Electric field optimization            
  Frank Wennmohs         : Technical directorship and infrastructure     
  Hang Xu                : AUTO-CI-Response properties                   
                                                                         
[FACCTs GmbH]                                                            
  Markus Bursch, Nicolas Foglia, Miquel Garcia-Rates, Ingolf Harden, Hagen Neugebauer, Anastasios Papadopoulos, 
  Christoph Riplinger, Bernardo de Souza, Georgi L. Stoychev                                                    
                                                                 
  APM, various basis sets, CI-OPT, improved COSX, DLPNO-Multilevel,           
  DOCKER, DRACO, updates on ESD, Fragmentator, GOAT, IRC, LR-CPCM, L-BFGS, MBIS, meta-GGA TD-DFT gradient, ML-optimized integration grids, 
  MM, NACMEs, nearIR, NEB, NEB-TS, NL-DFT gradient (VV10), 2- and 3-layer-ONIOM, interface openCOSMO-RS, QMMM,   
  Crystal-QMMM, RESP, rigid body optimization, SF, symmetry and pop. for TD-DFT, various functionals, SOLVATOR                                   
                                                                         
[Other institutions]                                                     
  V. Asgeirsson          : NEB                                           
  Christoph Bannwarth    : sTDA-DFT, sTD-DFT, PBEh-3c, B97-3c, D3        
  Giovanni Bistoni       : ETS/NOCV, ADLD/ADEX, COVALED                  
  Martin Brehm           : Molecular dynamics                            
  Ronald Cardenas        : ETS/NOCV                                      
  Martina Colucci        : COVALED                                       
  Sebastian Ehlert       : rSCAN, r2SCAN, r2SCAN-3c, D4, dhf basis sets  
  Marvin Friede          : D4 for Fr, Ra, Ac-Lr                          
  Lars Goerigk           : TD-DFT with DH, B97 family of functionals     
  Stefan Grimme          : VdW corrections, initial TS optimization, DFT functionals, gCP, sTDA/sTD-DF 
  Waldemar Hujo          : DFT-NL                                        
  H. Jonsson             : NEB                                           
  Holger Kruse           : gCP                                           
  Marcel Mueller         : wB97X-3c, vDZP basis set                      
  Hagen Neugebauer       : wr2SCAN, Native XTB                           
  Gianluca Regni         : ADLD/ADEX                                     
  Tobias Risthaus        : pre 6.0 range-separated hybrid DFT and stability analysis
  Lukas Wittmann         : regularized MP2, r2SCAN double-hybrids, wr2SCAN        
                                                                         
We gratefully acknowledge several colleagues who have allowed us to      
interface, adapt or use parts of their codes:                            
  Ed Valeev, F. Pavosevic, A. Kumar             : LibInt (2-el integral package), F12 methods 
  Garnet Chan, S. Sharma, J. Yang, R. Olivares  : DMRG                   
  Ulf Ekstrom                                   : XCFun DFT Library      
  Mihaly Kallay                                 : mrcc  (arbitrary order and MRCC methods)
  Frank Weinhold                                : gennbo (NPA and NBO analysis)           
  Simon Mueller                                 : openCOSMO-RS                            
  Christopher J. Cramer and Donald G. Truhlar   : smd solvation model                     
  S Lehtola, MJT Oliveira, MAL Marques          : LibXC Library                           
  Liviu Ungur et al                             : ANISO software                          


 Your calculation uses the libint2 library for the computation of 2-el integrals
 For citations please refer to: http://libint.valeyev.net

 Your ORCA version has been built with support for libXC version: 7.0.0
 For citations please refer to: https://libxc.gitlab.io

 This ORCA versions uses:
   CBLAS   interface :  Fast vector & matrix operations
   LAPACKE interface :  Fast linear algebra routines
   SCALAPACK package :  Parallel linear algebra routines
   Shared memory     :  Shared parallel matrices
   BLAS/LAPACK       :  OpenBLAS 0.3.29  USE64BITINT DYNAMIC_ARCH NO_AFFINITY SkylakeX SINGLE_THREADED
        Core in use  :  SkylakeX
   Copyright (c) 2011-2014, The OpenBLAS Project


  ***********************************
  * Starting time: Wed Aug 20 12:48:08 2025
  * Host name:     csed-0009
  * Process ID:    1579077
  * Working dir.:  /gpfs/fs1/home/copan/proj/cyclopentene-oh-addition-project/calc/C3e1+OH__C3y1o2/run-path-back
  ***********************************

NOTE: MaxCore=10000 MB was set to SCF,MP2,MDCI,CIPSI,MRCI,RASCI and CIS
      => If you want to overwrite this, your respective input block should be placed after the MaxCore statement


***************************************
The coordinates will be read from file: path_init_back.xyz
***************************************


Your calculation utilizes the atom-pairwise dispersion correction
based on EEQ partial charges (D4)


Warning: RI is on but no J-basis has been assigned. Assigning Def2/J (nothing to worry about!)
================================================================================

----- Orbital basis set information -----
Your calculation utilizes the basis: def2-TZVPP
   F. Weigend and R. Ahlrichs, Phys. Chem. Chem. Phys. 7, 3297 (2005).

----- AuxJ basis set information -----
Your calculation utilizes the auxiliary basis: def2/J
   H-Rn: F. Weigend, Phys. Chem. Chem. Phys. 8, 1057 (2006).
   Fr-Lr: K. Eichkorn, F. Weigend, O. Treutler, R. Ahlrichs; Theor. Chem. Acc. 97, 119 (1997).

----- AuxC basis set information -----
Your calculation utilizes the auxiliary basis: def2-TZVPP/C
  H-La, Hf-Rn : A. Hellweg, C. Hattig, S. Hofener and W. Klopper, Theor. Chem. Acc. 117, 587 (2007).
        Ce-Lu : J. Chmela and M. E. Harding, Mol. Phys. (2018).

================================================================================
                                        WARNINGS
                       Please study these warnings very carefully!
================================================================================


WARNING: your system is open-shell and RHF/RKS was chosen
  ===> : WILL SWITCH to UHF/UKS


WARNING: The frozen-core approximation for MP2-gradient calculations is turned on by default.

WARNING: Geometry Optimization
  ===> : Switching off AutoStart
         For restart on a previous wavefunction, please use MOREAD

WARNING: The frozen-core approximation is turned on by default for 
         the MP2 part of double-hybrid DFT.

================================================================================
                                       INPUT FILE
================================================================================
NAME = path_back.inp
|  1> % MaxCore 10000
|  2> ! PAL8
|  3> ! REVDSD-PBEP86-D4/2021 def2-TZVPP def2-TZVPP/c
|  4> ! Opt
|  5> %scf
|  6>    Convergence    VeryTight
|  7> end
|  8> %geom
|  9>    MaxIter        100
| 10> end
| 11> * xyzfile 0 2 path_init_back.xyz
| 12> 
| 13>                          ****END OF INPUT****
================================================================================

                       *****************************
                       * Geometry Optimization Run *
                       *****************************

Geometry optimization settings:
Update method            Update   .... BFGS
Choice of coordinates    CoordSys .... (2022) Redundant Internals
Initial Hessian          InHess   .... Almloef's Model
Max. no of cycles        MaxIter  .... 100

Convergence Tolerances:
Energy Change            TolE     ....  5.0000e-06 Eh
Max. Gradient            TolMAXG  ....  3.0000e-04 Eh/bohr
RMS Gradient             TolRMSG  ....  1.0000e-04 Eh/bohr
Max. Displacement        TolMAXD  ....  4.0000e-03 bohr
RMS Displacement         TolRMSD  ....  2.0000e-03 bohr
Strict Convergence                .... False

------------------------------------------------------------------------------
                        ORCA OPTIMIZATION COORDINATE SETUP
------------------------------------------------------------------------------

The optimization will be done in redundant internal coordinates (2022)
Making redundant internal coordinates   ...  (2022 redundants) done
Evaluating the initial hessian          ...  (Almloef) done
Evaluating the coordinates              ...  done
Calculating the B-matrix                .... done
Calculating the G-matrix                .... done
The number of degrees of freedom        ....   61

    -----------------------------------------------------------------
                    Redundant Internal Coordinates


    -----------------------------------------------------------------
         Definition                    Initial Value    Approx d2E/dq
    -----------------------------------------------------------------
      1. B(H   1,C   0)                  1.0855         0.366105   
      2. B(C   2,C   0)                  1.3478         0.729447   
      3. B(H   3,C   2)                  1.0808         0.372415   
      4. B(H   4,C   2)                  1.0876         0.363281   
      5. B(C   5,C   0)                  1.4967         0.422240   
      6. B(H   6,C   5)                  1.0918         0.357787   
      7. B(H   7,C   5)                  1.0906         0.359358   
      8. B(H   8,C   5)                  1.0947         0.353975   
      9. B(O   9,H   7)                  2.7031         0.010000   
     10. B(O   9,C   2)                  2.5229         0.010000   
     11. B(O   9,H   1)                  2.3200         0.010000   
     12. B(O   9,C   0)                  2.1007         0.041115   
     13. B(H  10,C   2)                  2.5628         0.010000   
     14. B(H  10,C   0)                  2.5286         0.010000   
     15. B(H  10,O   9)                  1.0007         0.447764   
     16. A(C   2,C   0,C   5)          123.9684         0.417187   
     17. A(H   1,C   0,O   9)           87.3758         0.231160   
     18. A(H   1,C   0,C   2)          118.3736         0.363827   
     19. A(H   1,C   0,C   5)          116.4685         0.331839   
     20. A(C   2,C   0,O   9)           91.3696         0.281123   
     21. A(C   5,C   0,O   9)          101.7463         0.258762   
     22. A(C   0,C   2,H   4)          121.1339         0.363346   
     23. A(C   0,C   2,O   9)           56.3479         0.224246   
     24. A(H   3,C   2,O   9)           99.7688         0.189462   
     25. A(C   0,C   2,H   3)          121.0048         0.364892   
     26. A(H   4,C   2,O   9)          111.6405         0.188899   
     27. A(H   3,C   2,H   4)          117.8082         0.292787   
     28. A(C   0,C   5,H   6)          111.4397         0.330580   
     29. A(H   7,C   5,H   8)          108.3739         0.289963   
     30. A(H   6,C   5,H   8)          108.1689         0.289764   
     31. A(C   0,C   5,H   8)          109.6101         0.329995   
     32. A(H   6,C   5,H   7)          108.7203         0.290451   
     33. A(C   0,C   5,H   7)          110.4466         0.330819   
     34. A(C   0,O   9,C   2)           32.2825         0.158959   
     35. A(C   2,O   9,H  10)           80.9029         0.192520   
     36. A(C   0,O   9,H  10)          103.4704         0.236055   
     37. D(H   4,C   2,C   0,H   1)   -175.6131         0.050000   
     38. D(O   9,C   2,C   0,C   5)   -105.1677         0.050000   
     39. D(H   3,C   2,C   0,H   1)      7.0954         0.050000   
     40. D(O   9,C   2,C   0,H   1)     87.7570         0.050000   
     41. D(H   4,C   2,C   0,O   9)     96.6300         0.050000   
     42. D(H   4,C   2,C   0,C   5)     -8.5378         0.050000   
     43. D(H   3,C   2,C   0,C   5)    174.1707         0.050000   
     44. D(H   3,C   2,C   0,O   9)    -80.6616         0.050000   
     45. D(H   7,C   5,C   0,O   9)     38.6737         0.014978   
     46. D(H   7,C   5,C   0,C   2)    138.4338         0.014978   
     47. D(H   7,C   5,C   0,H   1)    -54.2661         0.014978   
     48. D(H   6,C   5,C   0,O   9)    -82.2835         0.014978   
     49. D(H   6,C   5,C   0,C   2)     17.4765         0.014978   
     50. D(H   8,C   5,C   0,H   1)     65.0715         0.014978   
     51. D(H   6,C   5,C   0,H   1)   -175.2234         0.014978   
     52. D(C   0,O   9,C   2,H   4)   -113.8355         0.010000   
     53. D(C   0,O   9,C   2,H   3)    120.8839         0.010000   
     54. D(H  10,O   9,C   2,H   3)   -105.0760         0.010000   
     55. D(H  10,O   9,C   2,C   0)    134.0401         0.010000   
     56. D(C   2,O   9,C   0,C   5)    125.1571         0.010000   
     57. D(C   2,O   9,C   0,H   1)   -118.3436         0.010000   
     58. D(H  10,O   9,C   2,H   4)     20.2046         0.010000   
     59. D(H  10,O   9,C   0,C   5)     78.2799         0.010000   
     60. D(H  10,O   9,C   0,C   2)    -46.8772         0.010000   
     61. D(H  10,O   9,C   0,H   1)   -165.2208         0.010000   
    -----------------------------------------------------------------

Number of atoms                         .... 11
Number of degrees of freedom            .... 61


         *************************************************************
         *                GEOMETRY OPTIMIZATION CYCLE   1            *
         *************************************************************
---------------------------------
CARTESIAN COORDINATES (ANGSTROEM)
---------------------------------
  C      0.019514   -0.063697   -0.026734
  H     -0.060692    0.133055    1.037767
  C      1.240936   -0.023697   -0.595254
  H      2.131952    0.085420    0.006753
  H      1.365621   -0.143703   -1.669004
  C     -1.262133   -0.086553   -0.799307
  H     -1.095933   -0.372982   -1.839626
  H     -1.964897   -0.789549   -0.350705
  H     -1.715834    0.909603   -0.787844
  O      0.259092   -2.092098    0.464306
  H      0.606038   -2.497471   -0.382264

----------------------------
CARTESIAN COORDINATES (A.U.)
----------------------------
  NO LB      ZA    FRAG     MASS         X           Y           Z
   0 C     6.0000    0    12.011    0.036876   -0.120370   -0.050520
   1 H     1.0000    0     1.008   -0.114691    0.251438    1.961095
   2 C     6.0000    0    12.011    2.345029   -0.044781   -1.124867
   3 H     1.0000    0     1.008    4.028805    0.161420    0.012761
   4 H     1.0000    0     1.008    2.580650   -0.271559   -3.153960
   5 C     6.0000    0    12.011   -2.385086   -0.163561   -1.510471
   6 H     1.0000    0     1.008   -2.071013   -0.704834   -3.476389
   7 H     1.0000    0     1.008   -3.713117   -1.492031   -0.662736
   8 H     1.0000    0     1.008   -3.242456    1.718901   -1.488809
   9 O     8.0000    0    15.999    0.489613   -3.953492    0.877411
  10 H     1.0000    0     1.008    1.145246   -4.719536   -0.722374

--------------------------------
INTERNAL COORDINATES (ANGSTROEM)
--------------------------------
 C      0   0   0     0.000000000000     0.00000000     0.00000000
 H      1   0   0     1.085498379060     0.00000000     0.00000000
 C      1   2   0     1.347845203458   118.37361846     0.00000000
 H      3   1   2     1.080846177767   121.00476595     7.09537684
 H      3   1   2     1.087606018630   121.13388542   184.38690253
 C      1   2   3     1.496666452378   116.46847864   191.95952805
 H      6   1   2     1.091754383459   111.43968005   184.77663168
 H      6   1   2     1.090561493047   110.44658220   305.73389058
 H      6   1   2     1.094670166811   109.61006975    65.07146481
 O      1   2   3     2.100697150111    87.37576176    90.13974411
 H     10   1   2     1.000689542738   103.47039433   194.77915815

---------------------------
INTERNAL COORDINATES (A.U.)
---------------------------
 C      0   0   0     0.000000000000     0.00000000     0.00000000
 H      1   0   0     2.051294655238     0.00000000     0.00000000
 C      1   2   0     2.547058305454   118.37361846     0.00000000
 H      3   1   2     2.042503268876   121.00476595     7.09537684
 H      3   1   2     2.055277516816   121.13388542   184.38690253
 C      1   2   3     2.828289708822   116.46847864   191.95952805
 H      6   1   2     2.063116790246   111.43968005   184.77663168
 H      6   1   2     2.060862554058   110.44658220   305.73389058
 H      6   1   2     2.068626822247   109.61006975    65.07146481
 O      1   2   3     3.969742304019    87.37576176    90.13974411
 H     10   1   2     1.891029180854   103.47039433   194.77915815

---------------------
BASIS SET INFORMATION
---------------------
There are 3 groups of distinct atoms

 Group   1 Type C   : 11s6p2d1f contracted to 5s3p2d1f pattern {62111/411/11/1}
 Group   2 Type H   : 5s2p1d contracted to 3s2p1d pattern {311/11/1}
 Group   3 Type O   : 11s6p2d1f contracted to 5s3p2d1f pattern {62111/411/11/1}

Atom   0C    basis set group =>   1
Atom   1H    basis set group =>   2
Atom   2C    basis set group =>   1
Atom   3H    basis set group =>   2
Atom   4H    basis set group =>   2
Atom   5C    basis set group =>   1
Atom   6H    basis set group =>   2
Atom   7H    basis set group =>   2
Atom   8H    basis set group =>   2
Atom   9O    basis set group =>   3
Atom  10H    basis set group =>   2
---------------------------------
AUXILIARY/J BASIS SET INFORMATION
---------------------------------
There are 3 groups of distinct atoms

 Group   1 Type C   : 12s5p4d2f1g contracted to 6s4p3d1f1g pattern {711111/2111/211/2/1}
 Group   2 Type H   : 5s2p1d contracted to 3s1p1d pattern {311/2/1}
 Group   3 Type O   : 12s5p4d2f1g contracted to 6s4p3d1f1g pattern {711111/2111/211/2/1}

Atom   0C    basis set group =>   1
Atom   1H    basis set group =>   2
Atom   2C    basis set group =>   1
Atom   3H    basis set group =>   2
Atom   4H    basis set group =>   2
Atom   5C    basis set group =>   1
Atom   6H    basis set group =>   2
Atom   7H    basis set group =>   2
Atom   8H    basis set group =>   2
Atom   9O    basis set group =>   3
Atom  10H    basis set group =>   2
---------------------------------
AUXILIARY/C BASIS SET INFORMATION
---------------------------------
There are 3 groups of distinct atoms

 Group   1 Type C   : 8s6p5d3f1g contracted to 8s6p4d3f1g pattern {11111111/111111/2111/111/1}
 Group   2 Type H   : 4s3p2d1f contracted to 4s3p2d1f pattern {1111/111/11/1}
 Group   3 Type O   : 8s6p5d3f1g contracted to 8s6p4d3f1g pattern {11111111/111111/2111/111/1}

Atom   0C    basis set group =>   1
Atom   1H    basis set group =>   2
Atom   2C    basis set group =>   1
Atom   3H    basis set group =>   2
Atom   4H    basis set group =>   2
Atom   5C    basis set group =>   1
Atom   6H    basis set group =>   2
Atom   7H    basis set group =>   2
Atom   8H    basis set group =>   2
Atom   9O    basis set group =>   3
Atom  10H    basis set group =>   2


           ************************************************************
           *        Program running with 8 parallel MPI-processes     *
           *              working on a common directory               *
           ************************************************************
------------------------------------------------------------------------------
                             ORCA STARTUP CALCULATIONS
                           -- RI-GTO INTEGRALS CHOSEN --
------------------------------------------------------------------------------
------------------------------------------------------------------------------
                   ___                                                        
                  /   \      - P O W E R E D   B Y -                         
                 /     \                                                     
                 |  |  |   _    _      __       _____    __    __             
                 |  |  |  | |  | |    /  \     |  _  \  |  |  /  |          
                  \  \/   | |  | |   /    \    | | | |  |  | /  /          
                 / \  \   | |__| |  /  /\  \   | |_| |  |  |/  /          
                |  |  |   |  __  | /  /__\  \  |    /   |      \           
                |  |  |   | |  | | |   __   |  |    \   |  |\   \          
                \     /   | |  | | |  |  |  |  | |\  \  |  | \   \       
                 \___/    |_|  |_| |__|  |__|  |_| \__\ |__|  \__/        
                                                                              
                      - O R C A' S   B I G   F R I E N D -                    
                                      &                                       
                       - I N T E G R A L  F E E D E R -                       
                                                                              
 v1 FN, 2020, v2 2021, v3 2022-2024                                           
------------------------------------------------------------------------------


----------------------
SHARK INTEGRAL PACKAGE
----------------------

Number of atoms                             ...     11
Number of basis functions                   ...    222
Number of shells                            ...     86
Maximum angular momentum                    ...      3
Integral batch strategy                     ... SHARK/LIBINT Hybrid
RI-J (if used) integral strategy            ... SPLIT-RIJ (Revised 2003 algorithm where possible)
Printlevel                                  ...      1
Contraction scheme used                     ... SEGMENTED contraction
Prescreening option                         ... SCHWARTZ
   Thresh                                   ... 1.000e-12
   Tcut                                     ... 1.000e-14
   Tpresel                                  ... 1.000e-14 
Coulomb Range Separation                    ... NOT USED
Exchange Range Separation                   ... NOT USED
Multipole approximations                    ... NOT USED
Finite Nucleus Model                        ... NOT USED
CABS basis                                  ... NOT available
Auxiliary Coulomb fitting basis             ... AVAILABLE
   # of basis functions in Aux-J            ...    273
   # of shells in Aux-J                     ...     95
   Maximum angular momentum in Aux-J        ...      4
Auxiliary J/K fitting basis                 ... NOT available
Auxiliary Correlation fitting basis         ... AVAILABLE
   # of basis functions in Aux-C            ...    514
   # of shells in Aux-C                     ...    158
   Maximum angular momentum in Aux-C        ...      4
Auxiliary 'external' fitting basis          ... NOT available

Checking pre-screening integrals            ... done (  0.0 sec) Dimension = 86
   => SHARK Basis and OBASIS are compatible. Storing Pre-screening
Shell pair information
Shell pair cut-off parameter TPreSel        ...   1.0e-14
Total number of shell pairs                 ...      3741
Shell pairs after pre-screening             ...      3671
Total number of primitive shell pairs       ...      9425
Primitive shell pairs kept                  ...      7817
          la=0 lb=0:    829 shell pairs
          la=1 lb=0:   1043 shell pairs
          la=1 lb=1:    347 shell pairs
          la=2 lb=0:    607 shell pairs
          la=2 lb=1:    387 shell pairs
          la=2 lb=2:    120 shell pairs
          la=3 lb=0:    164 shell pairs
          la=3 lb=1:    104 shell pairs
          la=3 lb=2:     60 shell pairs
          la=3 lb=3:     10 shell pairs

Checking whether 4 symmetric matrices of dimension 222 fit in memory
:Max Core in MB      =  10000.00
 MB in use           =      7.90
 MB left             =   9992.10
 MB needed           =      0.76
 Data fit in memory  = YES
Calculating RI/J V-Matrix + Cholesky decomp.... done (  0.2 sec)
Calculating RI/C V-Matrix + Cholesky decomp.... done (  0.0 sec)
Calculating Nuclear repulsion               ... done (  0.0 sec) ENN=    119.248405827093 Eh

Diagonalization of the overlap matrix:
Smallest eigenvalue                        ... 1.476e-04
Time for diagonalization                   ...    0.019 sec
Threshold for overlap eigenvalues          ... 1.000e-07
Number of eigenvalues below threshold      ... 0
Time for construction of square roots      ...    0.004 sec
Total time needed                          ...    0.024 sec

-------------------
DFT GRID GENERATION
-------------------

General Integration Accuracy     IntAcc      ... 4.388
Radial Grid Type                 RadialGrid  ... OptM3 with GC (2021)
Angular Grid (max. ang.)         AngularGrid ... 4 (Lebedev-302)
Angular grid pruning method      GridPruning ... 4 (adaptive)
Weight generation scheme         WeightScheme... mBecke (2022)
Basis function cutoff            BFCut       ... 1.0000e-12
Integration weight cutoff        WCut        ... 1.0000e-14
Partially contracted basis set               ... off
Rotationally invariant grid construction     ... off
Angular grids for H and He will be reduced by one unit

Total number of grid points                  ...    46988
Total number of batches                      ...      740
Average number of points per batch           ...       63
Average number of grid points per atom       ...     4272

--------------------
COSX GRID GENERATION
--------------------

GRIDX 1
-------
General Integration Accuracy     IntAcc      ... 3.816
Radial Grid Type                 RadialGrid  ... OptM3 with GC (2021)
Angular Grid (max. ang.)         AngularGrid ... 1 (Lebedev-50)
Angular grid pruning method      GridPruning ... 4 (adaptive)
Weight generation scheme         WeightScheme... mBecke (2022)
Basis function cutoff            BFCut       ... 1.0000e-12
Integration weight cutoff        WCut        ... 1.0000e-14
Partially contracted basis set               ... on
Rotationally invariant grid construction     ... off
Angular grids for H and He will be reduced by one unit

Total number of grid points                  ...     6074
Total number of batches                      ...       55
Average number of points per batch           ...      110
Average number of grid points per atom       ...      552
UseSFitting                                  ... on

GRIDX 2
-------
General Integration Accuracy     IntAcc      ... 4.020
Radial Grid Type                 RadialGrid  ... OptM3 with GC (2021)
Angular Grid (max. ang.)         AngularGrid ... 2 (Lebedev-110)
Angular grid pruning method      GridPruning ... 4 (adaptive)
Weight generation scheme         WeightScheme... mBecke (2022)
Basis function cutoff            BFCut       ... 1.0000e-12
Integration weight cutoff        WCut        ... 1.0000e-14
Partially contracted basis set               ... on
Rotationally invariant grid construction     ... off
Angular grids for H and He will be reduced by one unit

Total number of grid points                  ...    12779
Total number of batches                      ...      107
Average number of points per batch           ...      119
Average number of grid points per atom       ...     1162
UseSFitting                                  ... on

GRIDX 3
-------
General Integration Accuracy     IntAcc      ... 4.338
Radial Grid Type                 RadialGrid  ... OptM3 with GC (2021)
Angular Grid (max. ang.)         AngularGrid ... 3 (Lebedev-194)
Angular grid pruning method      GridPruning ... 4 (adaptive)
Weight generation scheme         WeightScheme... mBecke (2022)
Basis function cutoff            BFCut       ... 1.0000e-12
Integration weight cutoff        WCut        ... 1.0000e-14
Partially contracted basis set               ... on
Rotationally invariant grid construction     ... off
Angular grids for H and He will be reduced by one unit

Total number of grid points                  ...    28007
Total number of batches                      ...      223
Average number of points per batch           ...      125
Average number of grid points per atom       ...     2546
UseSFitting                                  ... on
Grids setup in   0.5 sec
Initializing property integral containers    ... done (  0.0 sec)

SHARK setup successfully completed in   1.4 seconds

Maximum memory used throughout the entire STARTUP-calculation: 17.4 MB


           ************************************************************
           *        Program running with 8 parallel MPI-processes     *
           *              working on a common directory               *
           ************************************************************
-------------------------------------------------------------------------------
                                 ORCA GUESS
                   Start orbitals & Density for SCF / CASSCF
-------------------------------------------------------------------------------

------------
SCF SETTINGS
------------
Hamiltonian:
 Density Functional     Method          .... DFT(GTOs)
 Exchange Functional    Exchange        .... PBE
   PBE kappa parameter   XKappa         ....  0.804000
   PBE mue parameter    XMuePBE         ....  0.219520
 Correlation Functional Correlation     .... P86
 LDA part of GGA corr.  LDAOpt          .... VWN-5
 Gradients option       PostSCFGGA      .... off
 Hybrid DFT is turned on
   Fraction HF Exchange ScalHFX         ....  0.690000
   Scaling of DF-GGA-X  ScalDFX         ....  0.310000
   Scaling of DF-GGA-C  ScalDFC         ....  0.422400
   Scaling of DF-LDA-C  ScalLDAC        ....  0.422400
   Perturbative correction              ....  1.000000
 RI-approximation to the Coulomb term is turned on
   Number of AuxJ basis functions       .... 273
   RIJ-COSX (HFX calculated with COS-X)).... on


General Settings:
 Integral files         IntName         .... path_back
 Hartree-Fock type      HFTyp           .... UHF
 Total Charge           Charge          ....    0
 Multiplicity           Mult            ....    2
 Number of Electrons    NEL             ....   33
 Basis Dimension        Dim             ....  222
 Nuclear Repulsion      ENuc            ....    119.2484058271 Eh

Convergence Acceleration:
 AO-DIIS                CNVDIIS         .... on
   Start iteration      DIISMaxIt       ....    12
   Startup error        DIISStart       ....  0.200000
   # of expansion vecs  DIISMaxEq       ....     5
   Bias factor          DIISBfac        ....   1.050
   Max. coefficient     DIISMaxC        ....  10.000
 MO-DIIS                CNVKDIIS        .... off
 Trust-Rad. Augm. Hess. CNVTRAH         .... auto
   Auto Start mean grad. ratio tolernc. ....  1.125000
   Auto Start start iteration           ....    50
   Auto Start num. interpolation iter.  ....    10
   Max. Number of Micro iterations      ....    24
   Max. Number of Macro iterations      .... Maxiter - #DIIS iter
   Number of Davidson start vectors     ....     2
   Converg. threshold    (grad. norm)   ....   2.000e-06
   Grad. Scal. Fac. for Micro threshold ....   0.100
   Minimum threshold for Micro iter.    ....   1.000e-02
   NR start threshold (gradient norm)   ....   1.000e-04
   Initial trust radius                 ....   0.400
   Minimum AH scaling param. (alpha)    ....   1.000
   Maximum AH scaling param. (alpha)    .... 1000.000
   Quad. conv. algorithm                .... NR
   White noise on init. David. guess    .... on
   Maximum white noise                  ....   0.010
   Pseudo random numbers                .... off
   Inactive MOs                         .... canonical
   Orbital update algorithm             .... Taylor
   Preconditioner                       .... Diag
   Full preconditioner red. dimension   ....   250
 SOSCF                 CNVSOSCF           .... on
   Start iteration     SOSCFMaxIt         ....   150
   Startup grad/error  SOSCFStart         ....  0.003300
   Hessian update      SOSCFHessUp        .... L-BFGS
   Autom. constraints  SOSCFAutoConstrain .... off
 Level Shifting         CNVShift        .... on
   Level shift para.    LevelShift      ....    0.2500
   Turn off err/grad.   ShiftErr        ....    0.0010
 Zerner damping         CNVZerner       .... off
 Static damping         CNVDamp         .... on
   Fraction old density DampFac         ....    0.7000
   Max. Damping (<1)    DampMax         ....    0.9800
   Min. Damping (>=0)   DampMin         ....    0.0000
   Turn off err/grad.   DampErr         ....    0.1000

SCF Procedure:
 Maximum # iterations   MaxIter         ....   125
 SCF integral mode      SCFMode         .... Direct
   Integral package                     .... SHARK and LIBINT hybrid scheme
 Reset frequency        DirectResetFreq ....    20
 Integral Threshold     Thresh          ....  1.000e-12 Eh
 Primitive CutOff       TCut            ....  1.000e-14 Eh

Convergence Tolerance:
 Convergence Check Mode ConvCheckMode   .... Total+1el-Energy
 Convergence forced     ConvForced      .... 0
 Energy Change          TolE            ....  1.000e-09 Eh
 1-El. energy change                    ....  1.000e-06 Eh
 Orbital Gradient       TolG            ....  2.000e-06
 Orbital Rotation angle TolX            ....  2.000e-06
 DIIS Error             TolErr          ....  1.000e-08

------------------------------
INITIAL GUESS: MODEL POTENTIAL
------------------------------
Loading Hartree-Fock densities                     ... done
Calculating cut-offs                               ... done
Initializing the effective Hamiltonian             ... done
Setting up the integral package (SHARK)            ... done
Starting the Coulomb interaction                   ... done (   0.1 sec)
Making the grid                                    ... done (   0.0 sec)
Mapping shells                                     ... done
Starting the XC term evaluation                    ... done (   0.0 sec)
  promolecular density results
     # of electrons  =     32.998881776
     EX              =    -25.452159964
     EC              =      0.033179363
     EX+EC           =    -25.418980602
Transforming the Hamiltonian                       ... done (   0.0 sec)
Diagonalizing the Hamiltonian                      ... done (   0.0 sec)
Back transforming the eigenvectors                 ... done (   0.0 sec)
Now organizing SCF variables                       ... done
                      ------------------
                      INITIAL GUESS DONE (   0.2 sec)
                      ------------------
             **** ENERGY FILE WAS UPDATED (path_back.en.tmp) ****
Finished Guess after   0.7 sec
Maximum memory used throughout the entire GUESS-calculation: 12.6 MB


           ************************************************************
           *        Program running with 8 parallel MPI-processes     *
           *              working on a common directory               *
           ************************************************************

-------------------------------------------------------------------------------------------
                                      ORCA LEAN-SCF
                              memory conserving SCF solver
-------------------------------------------------------------------------------------------

----------------------------------------D-I-I-S--------------------------------------------
Iteration    Energy (Eh)           Delta-E    RMSDP     MaxDP     DIISErr   Damp  Time(sec)
-------------------------------------------------------------------------------------------
               ***  Starting incremental Fock matrix formation  ***
    1    -192.7898889540344101     0.00e+00  1.71e-03  2.01e-02  1.46e-01  0.700   0.9
    2    -192.8568336513150427    -6.69e-02  1.26e-03  1.51e-02  7.60e-02  0.700   0.5
                               ***Turning on AO-DIIS***
    3    -192.8909993508310947    -3.42e-02  5.82e-04  8.07e-03  4.33e-02  0.700   0.5
    4    -192.9124429390757598    -2.14e-02  1.50e-03  2.36e-02  3.68e-02  0.000   0.5
    5    -192.9648097318235784    -5.24e-02  5.04e-04  7.98e-03  1.99e-02  0.000   0.5
    6    -192.9676656617388915    -2.86e-03  5.25e-04  5.85e-03  1.23e-02  0.000   0.5
    7    -192.9698697398334559    -2.20e-03  5.55e-04  7.32e-03  1.13e-02  0.000   0.5
    8    -192.9716388111918093    -1.77e-03  3.60e-04  4.73e-03  6.96e-03  0.000   0.5
    9    -192.9722981057791742    -6.59e-04  2.40e-04  3.07e-03  4.18e-03  0.000   0.5
                              *** Initializing SOSCF ***
---------------------------------------S-O-S-C-F--------------------------------------
Iteration    Energy (Eh)           Delta-E    RMSDP     MaxDP     MaxGrad    Time(sec)
--------------------------------------------------------------------------------------
   10    -192.9725339257103940    -2.36e-04  1.34e-04  1.43e-03  2.11e-03     0.5
               *** Restarting incremental Fock matrix formation ***
   11    -192.9725965499956430    -6.26e-05  8.16e-05  1.11e-03  1.62e-03     0.7
   12    -192.9726109704548378    -1.44e-05  9.43e-05  1.15e-03  4.64e-04     0.6
   13    -192.9726193049943106    -8.33e-06  2.85e-05  3.75e-04  2.10e-04     0.6
   14    -192.9726209946748270    -1.69e-06  2.37e-05  3.08e-04  1.81e-04     0.6
   15    -192.9726217275549232    -7.33e-07  1.02e-05  1.86e-04  1.63e-04     0.6
   16    -192.9726220810364055    -3.53e-07  1.62e-05  3.36e-04  1.34e-04     0.6
   17    -192.9726225070631642    -4.26e-07  1.38e-05  2.59e-04  7.40e-05     0.6
   18    -192.9726227216517316    -2.15e-07  5.49e-06  9.07e-05  3.83e-05     0.6
   19    -192.9726227805025189    -5.89e-08  2.52e-06  3.08e-05  2.28e-05     0.6
   20    -192.9726227995235774    -1.90e-08  1.64e-06  1.79e-05  1.11e-05     0.6
   21    -192.9726228064580198    -6.93e-09  9.32e-07  1.59e-05  7.04e-06     0.6
   22    -192.9726228090995335    -2.64e-09  5.64e-07  9.66e-06  4.94e-06     0.6
   23    -192.9726228098739114    -7.74e-10  3.63e-07  4.01e-06  2.14e-06     0.6
                 **** Energy Check signals convergence ****

               *****************************************************
               *                     SUCCESS                       *
               *           SCF CONVERGED AFTER  23 CYCLES          *
               *****************************************************

Recomputing exchange energy using gridx3       ... done (    0.891 sec)
Old exchange energy                            :    -18.086695274 Eh
New exchange energy                            :    -18.086699583 Eh
Exchange energy change after final integration :     -0.000004309 Eh
Total energy after final integration           :   -192.972627119 Eh
             **** ENERGY FILE WAS UPDATED (path_back.en.tmp) ****

----------------
TOTAL SCF ENERGY
----------------

Total Energy       :       -192.97262711874069 Eh           -5251.05214 eV

Components:
Nuclear Repulsion  :        119.24840582709342 Eh            3244.91409 eV
Electronic Energy  :       -312.22102863712587 Eh           -8495.96612 eV
One Electron Energy:       -497.83886123724130 Eh          -13546.88412 eV
Two Electron Energy:        185.61783260011541 Eh            5050.91801 eV

Virial components:
Potential Energy   :       -385.45813502690606 Eh          -10488.84910 eV
Kinetic Energy     :        192.48550790816537 Eh            5237.79695 eV
Virial Ratio       :          2.00253067992427

DFT components:
N(Alpha)           :       17.000001216331 electrons
N(Beta)            :       15.999995450311 electrons
N(Total)           :       32.999996666642 electrons
E(X)               :       -8.089770238490 Eh       
E(C)               :       -0.490107143914 Eh       
E(XC)              :       -8.579877382404 Eh       

---------------
SCF CONVERGENCE
---------------

  Last Energy change         ...    7.7438e-10  Tolerance :   1.0000e-09
  Last MAX-Density change    ...    4.0116e-06  Tolerance :   1.0000e-08
  Last RMS-Density change    ...    3.6331e-07  Tolerance :   1.0000e-09
  Last DIIS Error            ...    2.1149e-03  Tolerance :   1.0000e-08
  Last Orbital Gradient      ...    2.1367e-06  Tolerance :   2.0000e-06
  Last Orbital Rotation      ...    1.2966e-05  Tolerance :   2.0000e-06


----------------------
UHF SPIN CONTAMINATION
----------------------

Warning: in a DFT calculation there is little theoretical justification to 
         calculate <S**2> as in Hartree-Fock theory. We will do it anyways
         but you should keep in mind that the values have only limited relevance

Expectation value of <S**2>     :     0.842202
Ideal value S*(S+1) for S=0.5   :     0.750000
Deviation                       :     0.092202

----------------
ORBITAL ENERGIES
----------------
                 SPIN UP ORBITALS
  NO   OCC          E(Eh)            E(eV) 
   0   1.0000     -20.032404      -545.1094 
   1   1.0000     -10.838839      -294.9398 
   2   1.0000     -10.816391      -294.3290 
   3   1.0000     -10.810385      -294.1655 
   4   1.0000      -1.198943       -32.6249 
   5   1.0000      -0.970133       -26.3987 
   6   1.0000      -0.852578       -23.1998 
   7   1.0000      -0.695366       -18.9219 
   8   1.0000      -0.588018       -16.0008 
   9   1.0000      -0.557866       -15.1803 
  10   1.0000      -0.540176       -14.6989 
  11   1.0000      -0.531883       -14.4733 
  12   1.0000      -0.496878       -13.5207 
  13   1.0000      -0.469906       -12.7868 
  14   1.0000      -0.446518       -12.1504 
  15   1.0000      -0.431463       -11.7407 
  16   1.0000      -0.322917        -8.7870 
  17   0.0000       0.094175         2.5626 
  18   0.0000       0.109489         2.9793 
  19   0.0000       0.136466         3.7134 
  20   0.0000       0.145037         3.9466 
  21   0.0000       0.155164         4.2222 
  22   0.0000       0.182319         4.9612 
  23   0.0000       0.186266         5.0686 
  24   0.0000       0.203839         5.5467 
  25   0.0000       0.232852         6.3362 
  26   0.0000       0.269814         7.3420 
  27   0.0000       0.279396         7.6028 

                 SPIN DOWN ORBITALS
  NO   OCC          E(Eh)            E(eV) 
   0   1.0000     -20.001170      -544.2595 
   1   1.0000     -10.844076      -295.0823 
   2   1.0000     -10.809858      -294.1512 
   3   1.0000     -10.806167      -294.0508 
   4   1.0000      -1.097780       -29.8721 
   5   1.0000      -0.964453       -26.2441 
   6   1.0000      -0.839325       -22.8392 
   7   1.0000      -0.691399       -18.8139 
   8   1.0000      -0.583585       -15.8802 
   9   1.0000      -0.536018       -14.5858 
  10   1.0000      -0.528255       -14.3745 
  11   1.0000      -0.513233       -13.9658 
  12   1.0000      -0.468515       -12.7489 
  13   1.0000      -0.445171       -12.1137 
  14   1.0000      -0.399709       -10.8766 
  15   1.0000      -0.335698        -9.1348 
  16   0.0000       0.022576         0.6143 
  17   0.0000       0.098861         2.6901 
  18   0.0000       0.117895         3.2081 
  19   0.0000       0.139538         3.7970 
  20   0.0000       0.146777         3.9940 
  21   0.0000       0.161624         4.3980 
  22   0.0000       0.182706         4.9717 
  23   0.0000       0.186359         5.0711 
  24   0.0000       0.205540         5.5930 
  25   0.0000       0.233543         6.3550 
  26   0.0000       0.271242         7.3809 
*Only the first 10 virtual orbitals were printed.

                    ********************************
                    * MULLIKEN POPULATION ANALYSIS *
                    ********************************

--------------------------------------------
MULLIKEN ATOMIC CHARGES AND SPIN POPULATIONS
--------------------------------------------
   0 C :    0.012654   -0.327246
   1 H :    0.121827    0.023578
   2 C :   -0.268842    0.582262
   3 H :    0.106206   -0.035511
   4 H :    0.095536   -0.041161
   5 C :   -0.222700    0.028399
   6 H :    0.067930   -0.001931
   7 H :    0.107261   -0.009117
   8 H :    0.088871   -0.015720
   9 O :   -0.342669    0.827163
  10 H :    0.233926   -0.030716
Sum of atomic charges         :   -0.0000000
Sum of atomic spin populations:    1.0000000

-----------------------------------------------------
MULLIKEN REDUCED ORBITAL CHARGES AND SPIN POPULATIONS
-----------------------------------------------------
CHARGE
  0 C s       :     3.095863  s :     3.095863
      pz      :     1.009562  p :     2.744468
      px      :     0.924764
      py      :     0.810142
      dz2     :     0.042341  d :     0.139069
      dxz     :     0.030899
      dyz     :     0.010795
      dx2y2   :     0.024153
      dxy     :     0.030881
      f0      :     0.000936  f :     0.007945
      f+1     :     0.001805
      f-1     :     0.000207
      f+2     :     0.001241
      f-2     :     0.000942
      f+3     :     0.001048
      f-3     :     0.001767

  1 H s       :     0.838944  s :     0.838944
      pz      :     0.020325  p :     0.037184
      px      :     0.008655
      py      :     0.008204
      dz2     :     0.000575  d :     0.002045
      dxz     :     0.000858
      dyz     :     0.000544
      dx2y2   :     0.000022
      dxy     :     0.000046

  2 C s       :     3.200010  s :     3.200010
      pz      :     1.007731  p :     2.988485
      px      :     0.977195
      py      :     1.003558
      dz2     :     0.024412  d :     0.075298
      dxz     :     0.023504
      dyz     :     0.003231
      dx2y2   :     0.012407
      dxy     :     0.011744
      f0      :     0.000704  f :     0.005049
      f+1     :     0.001087
      f-1     :     0.000073
      f+2     :     0.000906
      f-2     :     0.000466
      f+3     :     0.000780
      f-3     :     0.001032

  3 H s       :     0.852997  s :     0.852997
      pz      :     0.011410  p :     0.038822
      px      :     0.016415
      py      :     0.010996
      dz2     :     0.000425  d :     0.001975
      dxz     :     0.000440
      dyz     :     0.000168
      dx2y2   :     0.000382
      dxy     :     0.000561

  4 H s       :     0.863885  s :     0.863885
      pz      :     0.019687  p :     0.038630
      px      :     0.007931
      py      :     0.011012
      dz2     :     0.000537  d :     0.001949
      dxz     :     0.000720
      dyz     :     0.000616
      dx2y2   :     0.000035
      dxy     :     0.000042

  5 C s       :     3.156018  s :     3.156018
      pz      :     0.989061  p :     2.987002
      px      :     0.934314
      py      :     1.063626
      dz2     :     0.022702  d :     0.076046
      dxz     :     0.012855
      dyz     :     0.006636
      dx2y2   :     0.010777
      dxy     :     0.023075
      f0      :     0.000548  f :     0.003634
      f+1     :     0.000754
      f-1     :     0.000241
      f+2     :     0.000544
      f-2     :     0.000402
      f+3     :     0.000679
      f-3     :     0.000467

  6 H s       :     0.894511  s :     0.894511
      pz      :     0.017106  p :     0.035600
      px      :     0.008728
      py      :     0.009765
      dz2     :     0.000579  d :     0.001959
      dxz     :     0.000678
      dyz     :     0.000560
      dx2y2   :     0.000067
      dxy     :     0.000075

  7 H s       :     0.854400  s :     0.854400
      pz      :     0.010257  p :     0.036402
      px      :     0.012229
      py      :     0.013916
      dz2     :     0.000337  d :     0.001937
      dxz     :     0.000324
      dyz     :     0.000276
      dx2y2   :     0.000596
      dxy     :     0.000404

  8 H s       :     0.873217  s :     0.873217
      pz      :     0.008481  p :     0.036008
      px      :     0.009643
      py      :     0.017883
      dz2     :     0.000132  d :     0.001905
      dxz     :     0.000132
      dyz     :     0.000517
      dx2y2   :     0.000589
      dxy     :     0.000536

  9 O s       :     3.887400  s :     3.887400
      pz      :     1.448058  p :     4.441904
      px      :     1.842532
      py      :     1.151315
      dz2     :     0.003911  d :     0.012936
      dxz     :     0.002719
      dyz     :     0.004036
      dx2y2   :     0.001509
      dxy     :     0.000761
      f0      :     0.000034  f :     0.000430
      f+1     :     0.000135
      f-1     :     0.000065
      f+2     :     0.000044
      f-2     :     0.000069
      f+3     :     0.000041
      f-3     :     0.000041

 10 H s       :     0.682461  s :     0.682461
      pz      :     0.025822  p :     0.075858
      px      :     0.032043
      py      :     0.017993
      dz2     :     0.002505  d :     0.007755
      dxz     :     0.002231
      dyz     :     0.001679
      dx2y2   :     0.000626
      dxy     :     0.000713


SPIN
  0 C s       :    -0.034760  s :    -0.034760
      pz      :    -0.033716  p :    -0.305757
      px      :    -0.032362
      py      :    -0.239679
      dz2     :     0.000157  d :     0.011534
      dxz     :     0.000565
      dyz     :     0.003392
      dx2y2   :     0.004126
      dxy     :     0.003294
      f0      :     0.000148  f :     0.001737
      f+1     :     0.000044
      f-1     :     0.000060
      f+2     :     0.000111
      f-2     :     0.000286
      f+3     :     0.000249
      f-3     :     0.000838

  1 H s       :     0.027127  s :     0.027127
      pz      :    -0.000039  p :    -0.003338
      px      :     0.000103
      py      :    -0.003402
      dz2     :    -0.000013  d :    -0.000212
      dxz     :    -0.000009
      dyz     :    -0.000191
      dx2y2   :    -0.000004
      dxy     :     0.000004

  2 C s       :     0.054891  s :     0.054891
      pz      :     0.054580  p :     0.531235
      px      :     0.041224
      py      :     0.435432
      dz2     :     0.001512  d :    -0.002769
      dxz     :     0.001964
      dyz     :    -0.001256
      dx2y2   :    -0.001775
      dxy     :    -0.003214
      f0      :    -0.000138  f :    -0.001094
      f+1     :    -0.000026
      f-1     :    -0.000039
      f+2     :    -0.000147
      f-2     :    -0.000129
      f+3     :    -0.000297
      f-3     :    -0.000319

  3 H s       :    -0.041224  s :    -0.041224
      pz      :     0.000565  p :     0.005317
      px      :     0.000460
      py      :     0.004291
      dz2     :     0.000025  d :     0.000397
      dxz     :     0.000044
      dyz     :     0.000098
      dx2y2   :    -0.000000
      dxy     :     0.000229

  4 H s       :    -0.046649  s :    -0.046649
      pz      :    -0.000092  p :     0.005121
      px      :    -0.000108
      py      :     0.005321
      dz2     :     0.000016  d :     0.000367
      dxz     :     0.000021
      dyz     :     0.000324
      dx2y2   :     0.000004
      dxy     :     0.000003

  5 C s       :     0.006780  s :     0.006780
      pz      :     0.006249  p :     0.027131
      px      :     0.012622
      py      :     0.008259
      dz2     :    -0.000005  d :    -0.005219
      dxz     :    -0.000044
      dyz     :    -0.000309
      dx2y2   :    -0.000334
      dxy     :    -0.004527
      f0      :    -0.000004  f :    -0.000293
      f+1     :    -0.000027
      f-1     :    -0.000010
      f+2     :     0.000002
      f-2     :    -0.000154
      f+3     :    -0.000013
      f-3     :    -0.000087

  6 H s       :    -0.002308  s :    -0.002308
      pz      :     0.000271  p :     0.000371
      px      :     0.000117
      py      :    -0.000017
      dz2     :     0.000004  d :     0.000007
      dxz     :     0.000006
      dyz     :     0.000001
      dx2y2   :    -0.000001
      dxy     :    -0.000003

  7 H s       :    -0.009152  s :    -0.009152
      pz      :    -0.000035  p :     0.000037
      px      :     0.000094
      py      :    -0.000022
      dz2     :     0.000000  d :    -0.000002
      dxz     :    -0.000003
      dyz     :     0.000002
      dx2y2   :     0.000003
      dxy     :    -0.000004

  8 H s       :    -0.015909  s :    -0.015909
      pz      :    -0.000093  p :     0.000200
      px      :     0.000366
      py      :    -0.000073
      dz2     :     0.000002  d :    -0.000010
      dxz     :    -0.000001
      dyz     :    -0.000003
      dx2y2   :    -0.000010
      dxy     :     0.000002

  9 O s       :     0.008717  s :     0.008717
      pz      :     0.115033  p :     0.818900
      px      :     0.033639
      py      :     0.670228
      dz2     :     0.000239  d :    -0.000338
      dxz     :     0.000138
      dyz     :    -0.000511
      dx2y2   :    -0.000135
      dxy     :    -0.000068
      f0      :    -0.000017  f :    -0.000117
      f+1     :     0.000024
      f-1     :    -0.000151
      f+2     :     0.000033
      f-2     :    -0.000053
      f+3     :     0.000029
      f-3     :     0.000018

 10 H s       :    -0.034393  s :    -0.034393
      pz      :    -0.000584  p :     0.002754
      px      :    -0.001871
      py      :     0.005210
      dz2     :     0.000178  d :     0.000923
      dxz     :     0.000089
      dyz     :     0.000493
      dx2y2   :     0.000094
      dxy     :     0.000069



                     *******************************
                     * LOEWDIN POPULATION ANALYSIS *
                     *******************************

-------------------------------------------
LOEWDIN ATOMIC CHARGES AND SPIN POPULATIONS
-------------------------------------------
   0 C :   -0.030025   -0.120670
   1 H :    0.020821   -0.009030
   2 C :    0.021352    0.335797
   3 H :   -0.004129    0.019390
   4 H :   -0.006321    0.019874
   5 C :    0.004148   -0.011699
   6 H :    0.014182   -0.000098
   7 H :    0.017732   -0.004000
   8 H :    0.016379   -0.007946
   9 O :    0.075234    0.752221
  10 H :   -0.129372    0.026162

----------------------------------------------------
LOEWDIN REDUCED ORBITAL CHARGES AND SPIN POPULATIONS
----------------------------------------------------
CHARGE
  0 C s       :     2.748996  s :     2.748996
      pz      :     1.008569  p :     2.782152
      px      :     1.037838
      py      :     0.735746
      dz2     :     0.122828  d :     0.454262
      dxz     :     0.113387
      dyz     :     0.036255
      dx2y2   :     0.090351
      dxy     :     0.091442
      f0      :     0.004697  f :     0.044615
      f+1     :     0.012799
      f-1     :     0.001242
      f+2     :     0.006018
      f-2     :     0.006323
      f+3     :     0.005680
      f-3     :     0.007856

  1 H s       :     0.806168  s :     0.806168
      pz      :     0.076170  p :     0.145090
      px      :     0.034419
      py      :     0.034501
      dz2     :     0.010668  d :     0.027921
      dxz     :     0.009281
      dyz     :     0.007177
      dx2y2   :     0.000394
      dxy     :     0.000400

  2 C s       :     2.766476  s :     2.766476
      pz      :     1.009187  p :     2.911062
      px      :     1.038159
      py      :     0.863716
      dz2     :     0.083467  d :     0.273689
      dxz     :     0.097689
      dyz     :     0.010349
      dx2y2   :     0.050551
      dxy     :     0.031633
      f0      :     0.004016  f :     0.027421
      f+1     :     0.007947
      f-1     :     0.000598
      f+2     :     0.005426
      f-2     :     0.002645
      f+3     :     0.004155
      f-3     :     0.002633

  3 H s       :     0.821641  s :     0.821641
      pz      :     0.048901  p :     0.154202
      px      :     0.059349
      py      :     0.045951
      dz2     :     0.005800  d :     0.028286
      dxz     :     0.007971
      dyz     :     0.002521
      dx2y2   :     0.005598
      dxy     :     0.006395

  4 H s       :     0.825463  s :     0.825463
      pz      :     0.073809  p :     0.153051
      px      :     0.032905
      py      :     0.046336
      dz2     :     0.009878  d :     0.027808
      dxz     :     0.008938
      dyz     :     0.008434
      dx2y2   :     0.000222
      dxy     :     0.000336

  5 C s       :     2.701148  s :     2.701148
      pz      :     0.991581  p :     2.966702
      px      :     0.964183
      py      :     1.010938
      dz2     :     0.084365  d :     0.298143
      dxz     :     0.060084
      dyz     :     0.025679
      dx2y2   :     0.049131
      dxy     :     0.078882
      f0      :     0.003874  f :     0.029860
      f+1     :     0.005086
      f-1     :     0.003257
      f+2     :     0.004846
      f-2     :     0.004148
      f+3     :     0.005174
      f-3     :     0.003475

  6 H s       :     0.813282  s :     0.813282
      pz      :     0.066254  p :     0.143871
      px      :     0.036411
      py      :     0.041206
      dz2     :     0.009607  d :     0.028666
      dxz     :     0.008639
      dyz     :     0.008546
      dx2y2   :     0.000908
      dxy     :     0.000966

  7 H s       :     0.806907  s :     0.806907
      pz      :     0.043293  p :     0.146497
      px      :     0.050346
      py      :     0.052858
      dz2     :     0.004935  d :     0.028865
      dxz     :     0.005001
      dyz     :     0.004318
      dx2y2   :     0.008196
      dxy     :     0.006416

  8 H s       :     0.808540  s :     0.808540
      pz      :     0.038568  p :     0.146729
      px      :     0.044434
      py      :     0.063727
      dz2     :     0.002392  d :     0.028352
      dxz     :     0.001719
      dyz     :     0.007753
      dx2y2   :     0.008214
      dxy     :     0.008273

  9 O s       :     3.525081  s :     3.525081
      pz      :     1.499549  p :     4.375440
      px      :     1.755990
      py      :     1.119900
      dz2     :     0.006207  d :     0.022798
      dxz     :     0.004344
      dyz     :     0.007265
      dx2y2   :     0.003493
      dxy     :     0.001489
      f0      :     0.000222  f :     0.001446
      f+1     :     0.000308
      f-1     :     0.000374
      f+2     :     0.000169
      f-2     :     0.000226
      f+3     :     0.000069
      f-3     :     0.000078

 10 H s       :     0.708555  s :     0.708555
      pz      :     0.153371  p :     0.334988
      px      :     0.111448
      py      :     0.070168
      dz2     :     0.027134  d :     0.085829
      dxz     :     0.023641
      dyz     :     0.019896
      dx2y2   :     0.007092
      dxy     :     0.008068


SPIN
  0 C s       :    -0.005581  s :    -0.005581
      pz      :    -0.008583  p :    -0.172726
      px      :    -0.008274
      py      :    -0.155868
      dz2     :     0.004953  d :     0.050115
      dxz     :     0.002290
      dyz     :     0.010149
      dx2y2   :     0.013859
      dxy     :     0.018866
      f0      :     0.000414  f :     0.007521
      f+1     :     0.000256
      f-1     :     0.000056
      f+2     :     0.000277
      f-2     :     0.002078
      f+3     :     0.000603
      f-3     :     0.003838

  1 H s       :     0.009047  s :     0.009047
      pz      :    -0.002178  p :    -0.015231
      px      :    -0.000564
      py      :    -0.012489
      dz2     :    -0.000406  d :    -0.002845
      dxz     :    -0.000183
      dyz     :    -0.002107
      dx2y2   :    -0.000123
      dxy     :    -0.000025

  2 C s       :     0.013029  s :     0.013029
      pz      :     0.014529  p :     0.349503
      px      :     0.010752
      py      :     0.324223
      dz2     :    -0.002178  d :    -0.023124
      dxz     :    -0.002225
      dyz     :    -0.003711
      dx2y2   :    -0.001484
      dxy     :    -0.013527
      f0      :    -0.000365  f :    -0.003611
      f+1     :    -0.000149
      f-1     :     0.000155
      f+2     :    -0.000267
      f-2     :    -0.001076
      f+3     :    -0.000343
      f-3     :    -0.001567

  3 H s       :    -0.012228  s :    -0.012228
      pz      :     0.001841  p :     0.026331
      px      :     0.002643
      py      :     0.021846
      dz2     :     0.000215  d :     0.005287
      dxz     :     0.000398
      dyz     :     0.001389
      dx2y2   :     0.000107
      dxy     :     0.003178

  4 H s       :    -0.012796  s :    -0.012796
      pz      :     0.004025  p :     0.027470
      px      :     0.000582
      py      :     0.022862
      dz2     :     0.000543  d :     0.005200
      dxz     :     0.000233
      dyz     :     0.004286
      dx2y2   :     0.000065
      dxy     :     0.000072

  5 C s       :     0.001021  s :     0.001021
      pz      :     0.002024  p :     0.008933
      px      :     0.004716
      py      :     0.002192
      dz2     :    -0.000938  d :    -0.019647
      dxz     :    -0.001309
      dyz     :    -0.002261
      dx2y2   :    -0.000905
      dxy     :    -0.014235
      f0      :    -0.000057  f :    -0.002005
      f+1     :    -0.000117
      f-1     :    -0.000070
      f+2     :    -0.000063
      f-2     :    -0.000930
      f+3     :    -0.000074
      f-3     :    -0.000695

  6 H s       :    -0.001003  s :    -0.001003
      pz      :     0.000203  p :     0.000774
      px      :     0.000422
      py      :     0.000149
      dz2     :     0.000023  d :     0.000131
      dxz     :     0.000085
      dyz     :     0.000039
      dx2y2   :     0.000000
      dxy     :    -0.000017

  7 H s       :    -0.004644  s :    -0.004644
      pz      :     0.000114  p :     0.000507
      px      :     0.000452
      py      :    -0.000058
      dz2     :     0.000028  d :     0.000137
      dxz     :    -0.000006
      dyz     :     0.000032
      dx2y2   :     0.000070
      dxy     :     0.000013

  8 H s       :    -0.008068  s :    -0.008068
      pz      :    -0.000080  p :    -0.000011
      px      :    -0.000037
      py      :     0.000105
      dz2     :     0.000018  d :     0.000134
      dxz     :    -0.000002
      dyz     :     0.000023
      dx2y2   :     0.000023
      dxy     :     0.000070

  9 O s       :     0.012114  s :     0.012114
      pz      :     0.098931  p :     0.741758
      px      :     0.033061
      py      :     0.609766
      dz2     :    -0.000377  d :    -0.001693
      dxz     :    -0.000133
      dyz     :    -0.000216
      dx2y2   :    -0.000992
      dxy     :     0.000025
      f0      :     0.000053  f :     0.000042
      f+1     :     0.000022
      f-1     :    -0.000110
      f+2     :     0.000057
      f-2     :    -0.000027
      f+3     :     0.000037
      f-3     :     0.000010

 10 H s       :    -0.020820  s :    -0.020820
      pz      :     0.004371  p :     0.029206
      px      :    -0.002239
      py      :     0.027075
      dz2     :     0.003927  d :     0.017776
      dxz     :     0.001619
      dyz     :     0.008231
      dx2y2   :     0.002624
      dxy     :     0.001375



                      *****************************
                      * MAYER POPULATION ANALYSIS *
                      *****************************

  NA   - Mulliken gross atomic population
  ZA   - Total nuclear charge
  QA   - Mulliken gross atomic charge
  VA   - Mayer's total valence
  BVA  - Mayer's bonded valence
  FA   - Mayer's free valence

  ATOM       NA         ZA         QA         VA         BVA        FA
  0 C      5.9873     6.0000     0.0127     3.7704     3.7064     0.0639
  1 H      0.8782     1.0000     0.1218     1.0051     1.0044     0.0007
  2 C      6.2688     6.0000    -0.2688     3.9824     3.7714     0.2110
  3 H      0.8938     1.0000     0.1062     1.0111     1.0094     0.0017
  4 H      0.9045     1.0000     0.0955     1.0064     1.0041     0.0022
  5 C      6.2227     6.0000    -0.2227     3.9620     3.9616     0.0004
  6 H      0.9321     1.0000     0.0679     1.0070     1.0070     0.0000
  7 H      0.8927     1.0000     0.1073     0.9980     0.9979     0.0001
  8 H      0.9111     1.0000     0.0889     0.9983     0.9980     0.0003
  9 O      8.3427     8.0000    -0.3427     1.9738     1.3178     0.6560
 10 H      0.7661     1.0000     0.2339     1.0082     1.0065     0.0017

  Mayer bond orders larger than 0.100000
B(  0-C ,  1-H ) :   0.9813 B(  0-C ,  2-C ) :   1.6106 B(  0-C ,  5-C ) :   0.9637 
B(  0-C ,  9-O ) :   0.1862 B(  2-C ,  3-H ) :   1.0032 B(  2-C ,  4-H ) :   1.0063 
B(  2-C ,  9-O ) :   0.1103 B(  5-C ,  6-H ) :   0.9934 B(  5-C ,  7-H ) :   0.9923 
B(  5-C ,  8-H ) :   0.9818 B(  9-O , 10-H ) :   0.9865 

-------
TIMINGS
-------

Total SCF time: 0 days 0 hours 0 min 15 sec 

Total time                  ....      15.195 sec
Sum of individual times     ....      14.616 sec  ( 96.2%)

SCF preparation             ....       0.558 sec  (  3.7%)
Fock matrix formation       ....      12.996 sec  ( 85.5%)
  Startup                   ....       0.032 sec  (  0.2% of F)
  Split-RI-J                ....       0.901 sec  (  6.9% of F)
  Chain of spheres X        ....       8.994 sec  ( 69.2% of F)
  XC integration            ....       3.169 sec  ( 24.4% of F)
    XC Preparation          ....       0.000 sec  (  0.0% of XC)
    Basis function eval.    ....       0.645 sec  ( 20.3% of XC)
    Density eval.           ....       0.751 sec  ( 23.7% of XC)
    XC-Functional eval.     ....       0.157 sec  (  5.0% of XC)
    XC-Potential eval.      ....       1.230 sec  ( 38.8% of XC)
Diagonalization             ....       0.000 sec  (  0.0%)
Density matrix formation    ....       0.177 sec  (  1.2%)
Total Energy calculation    ....       0.080 sec  (  0.5%)
Population analysis         ....       0.028 sec  (  0.2%)
Orbital Transformation      ....       0.057 sec  (  0.4%)
Orbital Orthonormalization  ....       0.000 sec  (  0.0%)
DIIS solution               ....       0.349 sec  (  2.3%)
SOSCF solution              ....       0.368 sec  (  2.4%)
Finished LeanSCF after  15.2 sec

Maximum memory used throughout the entire LEANSCF-calculation: 18.6 MB


           ************************************************************
           *        Program running with 8 parallel MPI-processes     *
           *              working on a common directory               *
           ************************************************************

------------------------------------------------------------------------------
                                ORCA  MP2 
------------------------------------------------------------------------------

Freezing NCore=8 chemical core electrons

----------------------
RI-MP2 ENERGY+GRADIENT
----------------------
Dimension of the orbital basis            ...  222
Dimension of the AuxC basis               ...  514
Memory devoted to MP2                     ... 10000 MB   
Data format for matrix containers         ... DOUBLE
Compression type for matrix containers    ... UNCOMPRESSED
Scaling for aa/bb pairs                   ...   5.660e-02
Scaling for ab pairs                      ...   5.935e-01
Overall scaling of the MP2 energy         ...   1.000e+00

-----------------------
SHARK RI TRANSFORMATION
-----------------------

Number of basis functions                ...    222
Number of aux functions                  ...    514
Number of operators                      ...      2
Generation of IJK                        ... YES
Generation of IAK                        ... YES
Generation of ABK                        ... NO
Orbital Range Operator  0:    0-  16 to   17- 221

Orbital Range Operator  1:    0-  15 to   16- 221

Aux basis identifier                     ...   AUXC
Contraction scheme used                  ... SEGMENTED
Do orthogonalization                     ... YES
All operator combinations                ... NO
Transpose (ia|K)                         ... NO
Integral generator used                  ... LIBINT
Starting integral generation + trafo... 
Half trafo (segmented) done. Total time =  0.2 sec. integrals=  0.1 sec trafo=  0.0 sec
Integral generation and half transformation done (  0.2 sec)

Reading or making V^(-1/2)          ... done (  0.0 sec)
Sorting IJK integrals               ... done (  0.0 sec)
Sorting IAK integrals               ... done (  0.0 sec)
Sorting IJK integrals               ... done (  0.1 sec)
Sorting IAK integrals               ... done (  0.1 sec)

SHARK RI integral transformation done. Total time =  0.3 sec.

Opening buffers                              ... done
Frozen core precalculation                   ... done

Starting loop over batches of integrals:

Operator 0  - window                       ... (  4- 16)x( 17-221)
Operator 0  - Memory available             ... 10000 MB
Operator 0  - Memory needed per MO         ...   0.8 MB
Operator 0  - Number of orbitals per batch ... 2
Operator 0  - Number of batches            ... 1

OPERATOR  0   PASS   0:  MOs     4 ...    5 +    6 ...    7 +    8 ...    9 +   10 ...   11
                            +   12 ...   13 +   14 ...   15 +   16 ...   16
  Reading integrals       ... ok
Closing buffer GIPV ( 0.01 GB; CompressionRatio= 1.00)

Operator 1  - window                       ... (  4- 15)x( 16-221)
Operator 1  - Memory available             ... 10000 MB
Operator 1  - Memory needed per MO         ...   0.8 MB
Operator 1  - Number of orbitals per batch ... 2
Operator 1  - Number of batches            ... 1

OPERATOR  1   PASS   0:  MOs     4 ...    5 +    6 ...    7 +    8 ...    9 +   10 ...   11
                            +   12 ...   13 +   14 ...   15
  Reading integrals       ... ok
Closing buffer GIPV ( 0.01 GB; CompressionRatio= 1.00)
Time spent in pair loops =     0.398 sec
Deleting buffers (Ka|jb) ...done

Spin-scaled correlation energy components}
 E2 for alpha/alpha pairs :     -0.005772012 Eh
 E2 for beta/beta   pairs :     -0.005088305 Eh
 E2 for alpha/beta  pairs :     -0.373917102 Eh


-----------------------------------------------
 RI-MP2 CORRELATION ENERGY:     -0.384777419 Eh
-----------------------------------------------


---------------------
MP2 DENSITY FORMATION
---------------------

Completing the external part of the density      ... done
Storing the unrelaxed density                    ... done

Re-sorting 3-index density container for op 0    ... done
Re-sorting 3-index density container for op 1    ... done
Computing external part of the Lagrangian        ... done
Calculating the xc-kernel                        ... done
Calculating G(D)                                 ... done
Completing the Lagrangian                        ... done
Solving the Z-vector equations                   ... Using XC Grid                  ... (path_back.grid_cpscf.tmp) 
Recalculating density on grid  ... (path_back.grho_cpscf0.tmp) done
Calculating the xc-kernel      ... (path_back.fxc_cpscf0.tmp) done

-------------------
SHARK CP-SCF DRIVER
-------------------

Dimension of the orbital basis          ...    222
Dimension of the CPSCF-problem          ...   6781
Number of operators                     ...      2
Max. number of iterations               ...    128
Convergence Tolerance                   ... 3.0e-05
Number of perturbations                 ...      1
Perturbation type                       ... REAL

----------------------------
POPLE LINEAR EQUATION SOLVER
----------------------------

  ITERATION   0:   ||err||_max =   6.7720e-02 (   0.3 sec)
  ITERATION   1:   ||err||_max =   4.8052e-02 (   0.3 sec)
  ITERATION   2:   ||err||_max =   2.1886e-02 (   0.3 sec)
  ITERATION   3:   ||err||_max =   1.7237e-02 (   0.3 sec)
  ITERATION   4:   ||err||_max =   1.1020e-02 (   0.3 sec)
  ITERATION   5:   ||err||_max =   5.7721e-03 (   0.3 sec)
  ITERATION   6:   ||err||_max =   5.5591e-03 (   0.3 sec)
  ITERATION   7:   ||err||_max =   4.6661e-03 (   0.3 sec)
  ITERATION   8:   ||err||_max =   2.1794e-03 (   0.3 sec)
  ITERATION   9:   ||err||_max =   9.3116e-04 (   0.3 sec)
  ITERATION  10:   ||err||_max =   4.4523e-04 (   0.3 sec)
  ITERATION  11:   ||err||_max =   2.1103e-04 (   0.3 sec)
  ITERATION  12:   ||err||_max =   8.1377e-05 (   0.3 sec)
  ITERATION  13:   ||err||_max =   2.7992e-05 (   0.3 sec)
done
Finalizing the relaxed density                   ... done
Transforming P to the AO basis                   ... done
Storing the relaxed density                      ... done

------------------------------------
ENERGY WEIGHTED DENSITY FINALIZATION
------------------------------------

Gathering the parts of the W-matrix              ... done
Forming the Z-density                            ... done
[...]
      dyz     :     0.000091
      dx2y2   :     0.000570
      dxy     :     0.004455
  4 H s       :    -0.016402  s :    -0.016402
      pz      :     0.024990  p :     0.055306
      px      :     0.000361
      py      :     0.029955
      dz2     :     0.006947  d :     0.010028
      dxz     :     0.000153
      dyz     :     0.000079
      dx2y2   :     0.002734
      dxy     :     0.000115
  5 C s       :     0.002231  s :     0.002231
      pz      :     0.000543  p :     0.007061
      px      :     0.004582
      py      :     0.001935
      dz2     :    -0.000488  d :    -0.001623
      dxz     :    -0.000007
      dyz     :    -0.000144
      dx2y2   :    -0.000613
      dxy     :    -0.000371
      f0      :     0.000044  f :    -0.000137
      f+1     :    -0.000086
      f-1     :    -0.000012
      f+2     :    -0.000004
      f-2     :    -0.000010
      f+3     :    -0.000029
      f-3     :    -0.000040
  6 H s       :     0.000979  s :     0.000979
      pz      :     0.000932  p :     0.000705
      px      :    -0.000232
      py      :     0.000004
      dz2     :     0.000127  d :     0.000204
      dxz     :     0.000053
      dyz     :     0.000005
      dx2y2   :     0.000002
      dxy     :     0.000017
  7 H s       :    -0.000070  s :    -0.000070
      pz      :    -0.000086  p :     0.000407
      px      :     0.000336
      py      :     0.000157
      dz2     :     0.000021  d :     0.000099
      dxz     :     0.000001
      dyz     :     0.000013
      dx2y2   :     0.000056
      dxy     :     0.000007
  8 H s       :    -0.000217  s :    -0.000217
      pz      :     0.000037  p :     0.000781
      px      :     0.000707
      py      :     0.000037
      dz2     :     0.000003  d :     0.000060
      dxz     :     0.000012
      dyz     :     0.000003
      dx2y2   :     0.000001
      dxy     :     0.000043
  9 O s       :     0.001500  s :     0.001500
      pz      :     0.004318  p :     0.015216
      px      :     0.003221
      py      :     0.007677
      dz2     :    -0.000035  d :    -0.000197
      dxz     :     0.000260
      dyz     :    -0.000219
      dx2y2   :     0.000007
      dxy     :    -0.000209
      f0      :     0.000002  f :    -0.000014
      f+1     :     0.000006
      f-1     :    -0.000009
      f+2     :    -0.000006
      f-2     :     0.000000
      f+3     :    -0.000013
      f-3     :     0.000005
 10 H s       :     0.004370  s :     0.004370
      pz      :     0.000417  p :     0.000490
      px      :    -0.000515
      py      :     0.000587
      dz2     :     0.000040  d :     0.000756
      dxz     :     0.000065
      dyz     :     0.000458
      dx2y2   :     0.000173
      dxy     :     0.000020


                      *****************************
                      * MAYER POPULATION ANALYSIS *
                      *****************************

  NA   - Mulliken gross atomic population
  ZA   - Total nuclear charge
  QA   - Mulliken gross atomic charge
  VA   - Mayer's total valence
  BVA  - Mayer's bonded valence
  FA   - Mayer's free valence

  ATOM       NA         ZA         QA         VA         BVA        FA
  0 C      5.8011     6.0000     0.1989     3.9585     3.7797     0.1788
  1 H      0.9317     1.0000     0.0683     0.9959     0.9581     0.0377
  2 C      6.2869     6.0000    -0.2869     3.9660     2.9651     1.0009
  3 H      0.8828     1.0000     0.1172     1.0146     0.9787     0.0359
  4 H      0.9040     1.0000     0.0960     1.0194     0.9821     0.0374
  5 C      6.2779     6.0000    -0.2779     3.9945     3.8189     0.1756
  6 H      0.9226     1.0000     0.0774     1.0163     0.9808     0.0355
  7 H      0.8951     1.0000     0.1049     1.0134     0.9793     0.0341
  8 H      0.9220     1.0000     0.0780     1.0134     0.9778     0.0356
  9 O      8.3663     8.0000    -0.3663     2.1677     1.9392     0.2285
 10 H      0.8095     1.0000     0.1905     1.0526     1.0144     0.0382

  Mayer bond orders larger than 0.100000
B(  0-C ,  1-H ) :   0.9431 B(  0-C ,  2-C ) :   0.9813 B(  0-C ,  5-C ) :   0.9306 
B(  0-C ,  9-O ) :   0.9228 B(  2-C ,  3-H ) :   0.9724 B(  2-C ,  4-H ) :   0.9740 
B(  5-C ,  6-H ) :   0.9553 B(  5-C ,  7-H ) :   0.9684 B(  5-C ,  8-H ) :   0.9565 
B(  9-O , 10-H ) :   0.9705 


-------
TIMINGS
-------

Total time                :   12.069 sec
Integral trafo            :    0.292 sec (  2.4%)
FC preparation            :    0.059 sec (  0.5%)
I/O of integrals          :    0.073 sec (  0.6%)
K(i,j) operators          :    0.079 sec (  0.7%)
T(i,j) pair energies      :    0.018 sec (  0.2%)
V**(-1/2)                 :    0.049 sec (  0.4%)
Gamma(ia|P)               :    0.076 sec (  0.6%)
Gamma-Trafo               :    0.024 sec (  0.2%)
D(virtual)                :    0.016 sec (  0.1%)
D(internal)               :    0.057 sec (  0.5%)
W(virtual)                :    0.016 sec (  0.1%)
W(internal)               :    0.042 sec (  0.4%)
L(virtual)                :    0.083 sec (  0.7%)
L(internal)               :    0.003 sec (  0.0%)
XC kernel                 :    0.017 sec (  0.1%)
G(D)                      :    0.670 sec (  5.6%)
G(Z)                      :    0.669 sec (  5.5%)
Z-vector solution         :    2.279 sec ( 18.9%)
3-index derivative        :    0.214 sec (  1.8%)
2-index derivative        :    0.038 sec (  0.3%)
Fock matrix gradient      :    6.463 sec ( 53.6%)


---------------------------------------
MP2 TOTAL ENERGY:     -193.406482929 Eh
---------------------------------------

The final MP2 gradient
  0:  -0.00011742  -0.00000150  -0.00005586
  1:   0.00004913  -0.00001084   0.00002349
  2:   0.00009014   0.00003699  -0.00006930
  3:  -0.00002365  -0.00002368   0.00005717
  4:  -0.00004514   0.00001252   0.00000782
  5:   0.00006242   0.00003202  -0.00002677
  6:  -0.00000961  -0.00001160   0.00000736
  7:   0.00000965  -0.00000221   0.00000466
  8:  -0.00002759  -0.00000168   0.00000411
  9:   0.00000825  -0.00001784   0.00003280
 10:   0.00000318  -0.00000201  -0.00000399

-----------------------------------
NORM OF THE MP2 GRADIENT:  0.000222
-----------------------------------

Maximum memory used throughout the entire MP2-calculation: 39.9 MB


-------------------------------------------------------------------------------
                          DFT DISPERSION CORRECTION                            
                                                                               
                                DFTD4 V3.4.0                                   
-------------------------------------------------------------------------------
The REV-DSD-PBEP86-2021 functional is recognized
A user input s6-coefficient scaling factor has been recognized
A user input a1-coefficient scaling factor has been recognized
A user input s8-coefficient scaling factor has been recognized
A user input a2-coefficient scaling factor has been recognized
A user input s9-coefficient scaling factor has been recognized
Active option DFTDOPT                   ...         5   

-------------------------   ----------------
Dispersion correction           -0.004260181
-------------------------   ----------------


-------------------------   --------------------
FINAL SINGLE POINT ENERGY      -193.410743110133
-------------------------   --------------------

                                *** OPTIMIZATION RUN DONE ***



           ************************************************************
           *        Program running with 8 parallel MPI-processes     *
           *              working on a common directory               *
           ************************************************************

------------------------------------------------------------------------------
                              ORCA PROPERTY CALCULATIONS
------------------------------------------------------------------------------

GBWName                                 ... path_back.gbw
Number of atoms                         ...     11
Number of basis functions               ...    222
Max core memory                         ...  10000 MB

Electric properties:
Dipole moment                           ... YES
Quadrupole moment                       ...  NO
Static polarizability (Dipole/Dipole)   ...  NO
Static polarizability (Dipole/Quad.)    ...  NO
Static polarizability (Quad./Quad.)     ...  NO
Static polarizability (Velocity)        ...  NO
Static hyperpolarizability              ...  NO

Atomic electric properties:
Dipole moment                           ...  NO
Quadrupole moment                       ...  NO
Static polarizability                   ...  NO

Choice of electric origin               ... Center of mass
Position of electric origin             ...     0.103377    -1.278474    -0.416951

General magnetic properties:
Magnetizability                         ...  NO

EPR properties:
g-Tensor (aka g-matrix)                 ...  NO
Zero-Field splitting spin-orbit         ...  NO
Zero-field splitting spin-spin          ...  NO
Hyperfine couplings                     ...  NO (   0 nuclei)
Quadrupole couplings                    ...  NO (   0 nuclei)
Contact density                         ...  NO (   0 nuclei)

NMR properties:
Chemical shifts                         ...  NO (   0 nuclei)
Spin-rotation constants                 ...  NO (   0 nuclei)
Spin-spin couplings                     ...  NO (   0 nuclei,    0 pairs)

Choice of magnetic origin               ... GIAO
Position of magnetic origin             ...     0.000000     0.000000     0.000000

Properties with geometric perturbations:
SCF Hessian                             ...  NO
IR spectrum                             ...  NO
VCD spectrum                            ...  NO
X-ray spectroscopy properties:
SCF XES/XAS/RIXS spectra                ...  NO

SCF SOC stabilization energy            ...  NO
Diagonal Born-Oppenheimer correction    ...  NO

-------------
DIPOLE MOMENT
-------------

Method             : SCF
Type of density    : Electron Density
Multiplicity       :   2
Irrep              :   0
Energy             :  -193.0201132788006362 Eh
Basis              : AO
                                X                 Y                 Z
Electronic contribution:      1.108139378      -1.852211031       1.751086886
Nuclear contribution   :     -1.065394451       2.157432516      -2.324810071
                        -----------------------------------------
Total Dipole Moment    :      0.042744928       0.305221486      -0.573723185
                        -----------------------------------------
Magnitude (a.u.)       :      0.651264599
Magnitude (Debye)      :      1.655383054



--------------------
Rotational spectrum 
--------------------
 
Rotational constants in cm-1:             0.301023             0.280887             0.164001 
Rotational constants in MHz :          9024.450100          8420.794797          4916.621881 

Dipole components along the rotational axes: 
x,y,z [a.u.] :    -0.296416     0.491885    -0.307137 
x,y,z [Debye]:    -0.753429     1.250271    -0.780679 

 

-------------
DIPOLE MOMENT
-------------

Method             : MP2
Type of density    : Electron Density
Multiplicity       :   2
Level              : Unrelaxed density
Irrep              :   0
Energy             :     0.0000000000000000 Eh
Basis              : AO
                                X                 Y                 Z
Electronic contribution:      1.106441712      -1.859710339       1.762891606
Nuclear contribution   :     -1.065394451       2.157432516      -2.324810071
                        -----------------------------------------
Total Dipole Moment    :      0.041047261       0.297722178      -0.561918465
                        -----------------------------------------
Magnitude (a.u.)       :      0.637240719
Magnitude (Debye)      :      1.619737186



--------------------
Rotational spectrum 
--------------------
 
Rotational constants in cm-1:             0.301023             0.280887             0.164001 
Rotational constants in MHz :          9024.450100          8420.794797          4916.621881 

Dipole components along the rotational axes: 
x,y,z [a.u.] :    -0.290547     0.480435    -0.301398 
x,y,z [Debye]:    -0.738511     1.221169    -0.766092 

 

-------------
DIPOLE MOMENT
-------------

Method             : MP2
Type of density    : Electron Density
Multiplicity       :   2
Level              : Relaxed density
Irrep              :   0
Energy             :     0.0000000000000000 Eh
Basis              : AO
                                X                 Y                 Z
Electronic contribution:      1.098757195      -1.872938646       1.786547429
Nuclear contribution   :     -1.065394451       2.157432516      -2.324810071
                        -----------------------------------------
Total Dipole Moment    :      0.033362744       0.284493870      -0.538262642
                        -----------------------------------------
Magnitude (a.u.)       :      0.609734784
Magnitude (Debye)      :      1.549822653



--------------------
Rotational spectrum 
--------------------
 
Rotational constants in cm-1:             0.301023             0.280887             0.164001 
Rotational constants in MHz :          9024.450100          8420.794797          4916.621881 

Dipole components along the rotational axes: 
x,y,z [a.u.] :    -0.283085     0.456589    -0.288386 
x,y,z [Debye]:    -0.719544     1.160556    -0.733018 

 

Dipole moment calculation done in   0.1 sec 

Maximum memory used throughout the entire PROP-calculation: 12.4 MB

--------------------------------
SUGGESTED CITATIONS FOR THIS RUN
--------------------------------

Below you find a list of papers that are relevant to this ORCA run
We neither can nor want to force you to cite these papers, but we appreciate if you do
You receive ORCA, which is the product of decades of hard work by many enthusiastic individuals, for free
The only thing we kindly ask in return is that you cite our papers,
We deeply appreciate it, if you show your appreciation for ORCA by not just citing the generic ORCA reference.

Please note that relegating all ORCA citations to the supporting information does *not* help us.
SI sections are not indexed - citations you put there will not count into any citation statistics
But we need these citations in order to attract the funding resources that allow us to do what we are doing

Therefore, if you are a happy ORCA user, please consider citing a few of the papers listed below in the main body of your paper

In addition to the list printed below, the program has created the file path_back.bibtex that contains the list in bibtex format
You can import this file easily into all common literature databanks and citation aid programs


List of essential papers. We consider these as the minimum necessary citations

  1. Neese, F.
     Software update: the ORCA program system, version 6.0
     WIRES Comput. Molec. Sci. 2025 15(1), e70019
     doi.org/10.1002/wcms.7019

List of papers to cite with high priority. The work reported in these papers was absolutely
necessary for this run to complete.
Our perspective: the developers of density functionals and basis sets usually get cited in chemistry papers
Good! But without the algorithms to do something with them, the functionals or basis sets would not do anything.
Hence, in our opinion, the algorithm design and method developments papers are equally worthy of getting cited

  1. Neese, F.
     An improvement of the resolution of the identity approximation for the formation of the Coulomb matrix
     J. Comp. Chem. 2003 24(14), 1740-1747
     doi.org/10.1002/jcc.10318
  2. Neese, F.; Schwabe, T.; Grimme, S.
     Analytic derivatives for perturbatively corrected 'double hybrid' density functionals: Theory, implementation, and applications
     J. Chem. Phys. 2007 126(12), Art. No. 124115
     doi.org/10.1063/1.2712433
  3. Neese, F.; Wennmohs, F.; Hansen, A.; Becker, U.
     Efficient, approximate and parallel Hartree-Fock and hybrid DFT calculations. A 'chain-of-spheres' algorithm for the Hartree-Fock exchange
     Chem. Phys. 2009 356(1-3), 98-109
     doi.org/10.1016/j.chemphys.2008.10.036
  4. Kossmann, S.; Neese, F.
     Efficient Structure Optimization with Second-Order Many-Body Perturbation Theory: The RIJCOSX-MP2 Method
     J. Theo. Comp. Chem. 2010 6 , 2325-2338
     doi.org/10.1021/ct100199k
  5. Caldeweyher, E.; Bannwarth, C.; Grimme, S.
     Extension of the D3 dispersion coefficient model
     J. Chem. Phys. 2017 147 , 034112
     doi.org/10.1063/1.4993215
  6. Caldeweyher, E.; Ehlert, S.; Hansen, A.; Neugebauer, H.; Spicher, S.; Bannwarth, C.; Grimme, S.
     A generally applicable atomic-charge dependent London dispersion correction
     J. Chem. Phys. 2019 150 , 154122
     doi.org/10.1063/1.5090222
  7. Caldeweyher, E.; Mewes, J.; Ehlert, S.; Grimme, S.
     Extension and evaluation of the D4 London-dispersion model for periodic systems
     Phys. Chem. Chem. Phys. 2020 22(16), 8499-8512
     doi.org/10.1039/D0CP00502A
  8. Helmich-Paris, B.; de Souza, B.; Neese, F.; Izsák, R.
     An improved chain of spheres for exchange algorithm
     J. Chem. Phys. 2021 155(10), 104109
     doi.org/10.1063/5.0058766
  9. Neese, F.
     The SHARK Integral Generation and Digestion System
     J. Comp. Chem. 2022 44(3), 381
     doi.org/10.1002/jcc.26942
 10. Wittmann, L.; Gordiy, I.; Friede, M.; Helmich-Paris, B.; Grimme, S.; Hansen, A.; Bursch, M.
     Extension of the D3 and D4 London Dispersion Corrections to the full Actinides Series
     Phys. Chem. Chem. Phys. 2024 26(32), 21379-21394
     doi.org/10.1039/D4CP01514B

List of suggested additional citations. These are papers that are important in the 'surrounding' of 
of this run, or papers that preceded the highly important papers. If you like your results we are grateful for a citation.

  1. Izsak, R.; Neese, F.
     An overlap fitted chain of spheres exchange method
     J. Chem. Phys. 2011 135 , 144105
     doi.org/10.1063/1.3646921
  2. Izsak, R.; Hansen, A.; Neese, F.
     The resolution of identity and chain of spheres approximations for the LPNO-CCSD singles Fock term
     Molec. Phys. 2012 110 , 2413-2417
     doi.org/10.1080/00268976.2012.687466
  3. Neese, F.
     The ORCA program system
     WIRES Comput. Molec. Sci. 2012 2(1), 73-78
     doi.org/10.1002/wcms.81
  4. Izsak, R.; Neese, F.; Klopper, W.
     Robust fitting techniques in the chain of spheres approximation to the Fock exchange: The role of the complementary space
     J. Chem. Phys. 2013 139 , 
     doi.org/10.1063/1.4819264
  5. Neese, F.
     Software update: the ORCA program system, version 4.0
     WIRES Comput. Molec. Sci. 2018 8(1), 1-6
     doi.org/10.1002/wcms.1327
  6. Neese, F.; Wennmohs, F.; Becker, U.; Riplinger, C.
     The ORCA quantum chemistry program package
     J. Chem. Phys. 2020 152(22), 224108
     doi.org/10.1063/5.0004608
  7. Neese, F.
     Software update: The ORCA program system—Version 5.0
     WIRES Comput. Molec. Sci. 2022 12(1), e1606
     doi.org/10.1002/wcms.1606

List of optional additional citations

  1. Neese, F.
     Approximate second-order SCF convergence for spin unrestricted wavefunctions
     Chem. Phys. Lett. 2000 325(1-3), 93-98
     doi.org/10.1016/s0009-2614(00)00662-x

Timings for individual modules:

Sum of individual times          ...     1320.511 sec (=  22.009 min)
Startup calculation              ...      101.068 sec (=   1.684 min)   7.7 %
SCF iterations                   ...      565.136 sec (=   9.419 min)  42.8 %
Property calculations            ...        1.855 sec (=   0.031 min)   0.1 %
MP2 module                       ...      652.162 sec (=  10.869 min)  49.4 %
Geometry relaxation              ...        0.289 sec (=   0.005 min)   0.0 %
                             ****ORCA TERMINATED NORMALLY****
TOTAL RUN TIME: 0 days 0 hours 23 minutes 20 seconds 436 msec
