
                                 *****************
                                 * O   R   C   A *
                                 *****************

                                            #,                                       
                                            ###                                      
                                            ####                                     
                                            #####                                    
                                            ######                                   
                                           ########,                                 
                                     ,,################,,,,,                         
                               ,,#################################,,                 
                          ,,##########################################,,             
                       ,#########################################, ''#####,          
                    ,#############################################,,   '####,        
                  ,##################################################,,,,####,       
                ,###########''''           ''''###############################       
              ,#####''   ,,,,##########,,,,          '''####'''          '####       
            ,##' ,,,,###########################,,,                        '##       
           ' ,,###''''                  '''############,,,                           
         ,,##''                                '''############,,,,        ,,,,,,###''
      ,#''                                            '''#######################'''  
     '                                                          ''''####''''         
             ,#######,   #######,   ,#######,      ##                                
            ,#'     '#,  ##    ##  ,#'     '#,    #''#        ,####,    ,#,          
            ##       ##  ##   ,#'  ##            #'  '#       #'       ,# #          
            ##       ##  #######   ##           ,######,      #####,      #          
            '#,     ,#'  ##    ##  '#,     ,#' ,#      #,     #,   #      #          
             '#######'   ##     ##  '#######'  #'      '#     '####' #    #          



                #########################################################
                #                        -***-                          #
                #          Department of theory and spectroscopy        #
                #                                                       #
                #                      Frank Neese                      #
                #                                                       #
                #     Directorship, Architecture, Infrastructure        #
                #                    SHARK, DRIVERS                     #
                #        Core code/Algorithms in most modules           #
                #                                                       #
                #        Max Planck Institute fuer Kohlenforschung      #
                #                Kaiser Wilhelm Platz 1                 #
                #                 D-45470 Muelheim/Ruhr                 #
                #                      Germany                          #
                #                                                       #
                #                  All rights reserved                  #
                #                        -***-                          #
                #########################################################


                         Program Version 6.1.0  -  RELEASE   -
                                (GIT: $679e74b$)
                          ($2025-06-10 18:02:51 +0200$)


 With contributions from (in alphabetic order):
[Max-Planck-Institut fuer Kohlenforschung]                               
  Daniel Aravena         : Magnetic Suceptibility                        
  Michael Atanasov       : Ab Initio Ligand Field Theory (pilot matlab implementation)
  Alexander A. Auer      : GIAO ZORA, VPT2 properties, NMR spectrum      
  Ute Becker             : All parallelization in ORCA, NUMFREQ, NUMCALC 
  Giovanni Bistoni       : ED, misc. LED, open-shell LED, HFLD           
  Dmytro Bykov           : pre 5.0 version of the SCF Hessian            
  Marcos Casanova-Páez   : Triplet and SCS-CIS(D). UHF-(DLPNO)-IP/EA/STEOM-CCSD. UHF-CVS-IP/STEOM-CCSD   
  Vijay G. Chilkuri      : MRCI spin determinant printing, contributions to CSF-ICE 
  Pauline Colinet        : FMM embedding                                 
  Dipayan Datta          : RHF DLPNO-CCSD density                        
  Achintya Kumar Dutta   : EOM-CC, STEOM-CC                              
  Nicolas Foglia         : Exact transition moments, OPA infrastructure, MCD improvements    
  Dmitry Ganyushin       : Spin-Orbit,Spin-Spin,Magnetic field MRCI      
  Miquel Garcia-Rates    : C-PCM and meta-GGA Hessian, CCSD/C-PCM, Gaussian charge scheme 
  Tiago L. C. Gouveia    : GS-ROHF, GS-ROCIS                             
  Yang Guo               : DLPNO-NEVPT2, F12-NEVPT2, CIM, IAO-localization        
  Andreas Hansen         : Spin unrestricted coupled pair/coupled cluster methods 
  Ingolf Harden          : AUTO-CI MPn and infrastructure                
  Benjamin Helmich-Paris : MC-RPA, TRAH-(SCF,CASSCF), AVAS, COSX integrals, SCF dyn. polar., MC-PDFT, srDFT 
  Lee Huntington         : MR-EOM, pCC                                   
  Robert Izsak           : Overlap fitted RIJCOSX, COSX-SCS-MP3, EOM     
  Riya Kayal             : Wick's Theorem for AUTO-CI, AUTO-CI UHF-CCSDT 
  Emily Kempfer          : AUTO-CI RHF CISDT and CCSDT, approximate NEVPT4
  Christian Kollmar      : KDIIS, OOCD, Brueckner-CCSD(T), CCSD density, CASPT2, CASPT2-K, improved NEVPT2 
  Axel Koslowski         : Symmetry handling                             
  Simone Kossmann        : meta-GGA functionals, TD-DFT gradient, OOMP2, (MP2 Hessian; deprecated post 5.0) 
  Lucas Lang             : DCDCAS, Hyperfine gauge corrections, ICE-SOC+SSC
  Marvin Lechner         : AUTO-CI (C++ implementation), FIC-MRCC        
  Spencer Leger          : CASSCF response                               
  Dagmar Lenk            : GEPOL surface, SMD, ORCA-2-JSON               
  Dimitrios Liakos       : Extrapolation schemes; Compound Job, Property file
  Dimitrios Manganas     : Further ROCIS development; embedding schemes. LFT, Crystal Embedding 
  Dimitrios Pantazis     : SARC Basis sets                               
  Anastasios Papadopoulos: AUTO-CI, single reference methods and gradients 
  Taras Petrenko         : pre 6.0 DFT Hessian and TD-DFT gradient,  ECA, NRVS 
  Petra Pikulova         : Analytic Raman intensities                    
  Peter Pinski           : DLPNO-MP2, DLPNO-MP2 Gradient                 
  Shashank Vittal Rao    : ES-AILFT, MagRelax                            
  Christoph Reimann      : Effective Core Potentials                     
  Marius Retegan         : Local ZFS, SOC                                
  Christoph Riplinger    : Optimizer, TS searches, QM/MM, DLPNO-CCSD(T), (RO)-DLPNO pert. Triples 
  Michael Roemelt        : Original ROCIS implementation, recursive CI coupling coefficients
  Masaaki Saitow         : Open-shell DLPNO-CCSD energy and density      
  Barbara Sandhoefer     : DKH picture change effects                    
  Yorick L. A. Schmerwitz: GMF and freeze-and-release deltaSCF, NEB S-IDPP initial path                    
  Kantharuban Sivalingam : CASSCF convergence/infrastructure, NEVPT2, NEVPT3, NEVPT4(SD), FIC-MRCI and CEPA variants
  Bernardo de Souza      : ESD, SOC TD-DFT                               
  Georgi L. Stoychev     : AutoAux, RI-MP2 NMR, DLPNO-MP2 response, X2C  
  Van Anh Tran           : RI-MP2 g-tensors                              
  Willem Van den Heuvel  : Paramagnetic NMR                              
  Zikuan Wang            : NOTCH, Electric field optimization            
  Frank Wennmohs         : Technical directorship and infrastructure     
  Hang Xu                : AUTO-CI-Response properties                   
                                                                         
[FACCTs GmbH]                                                            
  Markus Bursch, Nicolas Foglia, Miquel Garcia-Rates, Ingolf Harden, Hagen Neugebauer, Anastasios Papadopoulos, 
  Christoph Riplinger, Bernardo de Souza, Georgi L. Stoychev                                                    
                                                                 
  APM, various basis sets, CI-OPT, improved COSX, DLPNO-Multilevel,           
  DOCKER, DRACO, updates on ESD, Fragmentator, GOAT, IRC, LR-CPCM, L-BFGS, MBIS, meta-GGA TD-DFT gradient, ML-optimized integration grids, 
  MM, NACMEs, nearIR, NEB, NEB-TS, NL-DFT gradient (VV10), 2- and 3-layer-ONIOM, interface openCOSMO-RS, QMMM,   
  Crystal-QMMM, RESP, rigid body optimization, SF, symmetry and pop. for TD-DFT, various functionals, SOLVATOR                                   
                                                                         
[Other institutions]                                                     
  V. Asgeirsson          : NEB                                           
  Christoph Bannwarth    : sTDA-DFT, sTD-DFT, PBEh-3c, B97-3c, D3        
  Giovanni Bistoni       : ETS/NOCV, ADLD/ADEX, COVALED                  
  Martin Brehm           : Molecular dynamics                            
  Ronald Cardenas        : ETS/NOCV                                      
  Martina Colucci        : COVALED                                       
  Sebastian Ehlert       : rSCAN, r2SCAN, r2SCAN-3c, D4, dhf basis sets  
  Marvin Friede          : D4 for Fr, Ra, Ac-Lr                          
  Lars Goerigk           : TD-DFT with DH, B97 family of functionals     
  Stefan Grimme          : VdW corrections, initial TS optimization, DFT functionals, gCP, sTDA/sTD-DF 
  Waldemar Hujo          : DFT-NL                                        
  H. Jonsson             : NEB                                           
  Holger Kruse           : gCP                                           
  Marcel Mueller         : wB97X-3c, vDZP basis set                      
  Hagen Neugebauer       : wr2SCAN, Native XTB                           
  Gianluca Regni         : ADLD/ADEX                                     
  Tobias Risthaus        : pre 6.0 range-separated hybrid DFT and stability analysis
  Lukas Wittmann         : regularized MP2, r2SCAN double-hybrids, wr2SCAN        
                                                                         
We gratefully acknowledge several colleagues who have allowed us to      
interface, adapt or use parts of their codes:                            
  Ed Valeev, F. Pavosevic, A. Kumar             : LibInt (2-el integral package), F12 methods 
  Garnet Chan, S. Sharma, J. Yang, R. Olivares  : DMRG                   
  Ulf Ekstrom                                   : XCFun DFT Library      
  Mihaly Kallay                                 : mrcc  (arbitrary order and MRCC methods)
  Frank Weinhold                                : gennbo (NPA and NBO analysis)           
  Simon Mueller                                 : openCOSMO-RS                            
  Christopher J. Cramer and Donald G. Truhlar   : smd solvation model                     
  S Lehtola, MJT Oliveira, MAL Marques          : LibXC Library                           
  Liviu Ungur et al                             : ANISO software                          


 Your calculation uses the libint2 library for the computation of 2-el integrals
 For citations please refer to: http://libint.valeyev.net

 Your ORCA version has been built with support for libXC version: 7.0.0
 For citations please refer to: https://libxc.gitlab.io

 This ORCA versions uses:
   CBLAS   interface :  Fast vector & matrix operations
   LAPACKE interface :  Fast linear algebra routines
   SCALAPACK package :  Parallel linear algebra routines
   Shared memory     :  Shared parallel matrices
   BLAS/LAPACK       :  OpenBLAS 0.3.29  USE64BITINT DYNAMIC_ARCH NO_AFFINITY SkylakeX SINGLE_THREADED
        Core in use  :  SkylakeX
   Copyright (c) 2011-2014, The OpenBLAS Project


  ***********************************
  * Starting time: Tue Aug  5 13:42:47 2025
  * Host name:     csed-0009
  * Process ID:    754637
  * Working dir.:  /gpfs/fs1/home/copan/proj/cyclopentene-oh-addition-project/calc/cyC5y1o2/run-wb97x-3c
  ***********************************



***************************************
The coordinates will be read from file: guess.xyz
***************************************


Your calculation utilizes the atom-pairwise dispersion correction
based on EEQ partial charges (D4)


================================================================================

cite the ECPs for C  [vDZP-ECP], O  [vDZP-ECP] as follows:
   B-Ne (ecp-2-mwb), Al-Ar (ecp-10-mwb), Ga-Kr (ecp-28-mwb), Y-Cd (ecp-28-mwb), In-Xe (ecp-46-mwb):
     A. Bergner, M. Dolg, W. Küchle, H. Stoll, and H. Preuß, Mol. Phys. 80, 1431 (1993)., T. Leininger, A. Berning, A. Nicklass, H. Stoll, H.-J. Werner, and H.-J.Flad, Chem. Phys. 217, 19 (1997).
   Na-Mg, K-Ca, Rb-Sr, Cs-Ba (CRENBL):
     L. Fernandez Pacios and P. A. Christiansen, J. Chem. Phys. 82, 2664 (1985)., M. M. Hurley, L. F. Pacios, P. A. Christiansen, R. B. Ross, and W. C. Ermler, J. Chem. Phys. 84, 6840 (1986)., L. A. LaJohn, P. A. Christiansen, R. B. Ross, T. Atashroo, and W. C. Ermler, J. Chem. Phys. 87, 2812 (1987)., R. B. Ross, J. M. Powers, T. Atashroo, W. C. Ermler, L. A. LaJohn, and P. A. Christiansen, J. Chem. Phys. 93, 6654 (1990). 
   Sc-Zn (ecp-10-mdf):
     M. Dolg, U. Wedig, H. Stoll, and H. Preuss, J. Chem. Phys. 86, 866 (1986). 
   Y-Cd (ecp-28-mwb), Hf-Hg (ecp-60-mwb):
     D. Andrae, U. Häußermann, M. Dolg, H. Stoll, and H. Preuß, Theor. Chim. Acta 77, 123 (1990). 
   La (ecp-46-mwb):
     M. Dolg, H. Stoll, and H. Preuss, J. Chem. Phys. 90, 1730 (1989)., M. Dolg, H. Stoll, and H. Preuss, Theor. Chim. Acta 85, 441 (1993).
   Ce-Lu (SBKJC-ecp):
     T. R. Cundari and W. J. Stevens, J. Chem. Phys. 98, 5555 (1993).
   Tl-Rn (ecp-78-mwb):
     W. Küchle, M. Dolg, H. Stoll, and H. Preuss, Mol. Phys. 74, 1245 (1991).

ECP parameters for C  [vDZP-ECP], O  [vDZP-ECP] have been obtained from:
MM, AH, SG, J. Chem. Phys. 158, 014103 (2023), 10.1063/5.0133026

----- Orbital basis set information -----
Your calculation utilizes the basis: vDZP
   Marcel Mueller, Andreas Hansen, Stefan Grimme 
   J. Chem. Phys. 158, 014103 (2023). DOI: 10.1063/5.0133026

----- AuxJ basis set information -----
Your calculation utilizes the auxiliary basis: def2/J
   H-Rn: F. Weigend, Phys. Chem. Chem. Phys. 8, 1057 (2006).
   Fr-Lr: K. Eichkorn, F. Weigend, O. Treutler, R. Ahlrichs; Theor. Chem. Acc. 97, 119 (1997).

================================================================================
                                        WARNINGS
                       Please study these warnings very carefully!
================================================================================

WARNING: Frozen-Core approximation turned on, but there are no core electrons.
  ===> : Turning off frozen-core approximation


WARNING: your system is open-shell and RHF/RKS was chosen
  ===> : WILL SWITCH to UHF/UKS


WARNING: Geometry Optimization
  ===> : Switching off AutoStart
         For restart on a previous wavefunction, please use MOREAD

================================================================================
                                       INPUT FILE
================================================================================
NAME = opt.inp
|  1> ! wB97X-3c
|  2> ! OPT
|  3> * xyzfile 0 2 guess.xyz
|  4> 
|  5>                          ****END OF INPUT****
================================================================================

                       *****************************
                       * Geometry Optimization Run *
                       *****************************

Geometry optimization settings:
Update method            Update   .... BFGS
Choice of coordinates    CoordSys .... (2022) Redundant Internals
Initial Hessian          InHess   .... Almloef's Model
Max. no of cycles        MaxIter  .... 50

Convergence Tolerances:
Energy Change            TolE     ....  5.0000e-06 Eh
Max. Gradient            TolMAXG  ....  3.0000e-04 Eh/bohr
RMS Gradient             TolRMSG  ....  1.0000e-04 Eh/bohr
Max. Displacement        TolMAXD  ....  4.0000e-03 bohr
RMS Displacement         TolRMSD  ....  2.0000e-03 bohr
Strict Convergence                .... False

------------------------------------------------------------------------------
                        ORCA OPTIMIZATION COORDINATE SETUP
------------------------------------------------------------------------------

The optimization will be done in redundant internal coordinates (2022)
Making redundant internal coordinates   ...  (2022 redundants) done
Evaluating the initial hessian          ...  (Almloef) done
Evaluating the coordinates              ...  done
Calculating the B-matrix                .... done
Calculating the G-matrix                .... done
The number of degrees of freedom        ....   74

    -----------------------------------------------------------------
                    Redundant Internal Coordinates


    -----------------------------------------------------------------
         Definition                    Initial Value    Approx d2E/dq
    -----------------------------------------------------------------
      1. B(C   1,C   0)                  1.5271         0.377630   
      2. B(C   2,C   1)                  1.5233         0.382885   
      3. B(C   3,C   2)                  1.4911         0.430956   
      4. B(C   4,C   3)                  1.4868         0.437765   
      5. B(C   4,C   0)                  1.5256         0.379670   
      6. B(H   5,C   0)                  1.0970         0.350902   
      7. B(H   6,C   0)                  1.0944         0.354331   
      8. B(H   7,C   1)                  1.0942         0.354589   
      9. B(H   8,C   1)                  1.0972         0.350657   
     10. B(H   9,C   2)                  1.0930         0.356151   
     11. B(H  10,C   2)                  1.0946         0.354095   
     12. B(H  11,C   3)                  1.0800         0.373638   
     13. B(H  12,C   4)                  1.0928         0.356355   
     14. B(O  13,C   4)                  1.4147         0.511058   
     15. B(H  14,O  13)                  0.9715         0.498365   
     16. A(C   1,C   0,H   6)          111.3329         0.324034   
     17. A(C   4,C   0,H   5)          110.1446         0.323803   
     18. A(C   1,C   0,C   4)          104.3161         0.365032   
     19. A(C   1,C   0,H   5)          109.2891         0.323517   
     20. A(H   5,C   0,H   6)          108.6863         0.288929   
     21. A(C   4,C   0,H   6)          112.9836         0.324321   
     22. A(C   2,C   1,H   8)          110.2344         0.324215   
     23. A(C   2,C   1,H   7)          112.1849         0.324809   
     24. A(C   0,C   1,H   7)          112.2210         0.324073   
     25. A(H   7,C   1,H   8)          107.7778         0.288930   
     26. A(C   0,C   1,C   2)          104.3402         0.365559   
     27. A(C   0,C   1,H   8)          110.0836         0.323480   
     28. A(C   1,C   2,C   3)          102.8558         0.373952   
     29. A(H   9,C   2,H  10)          109.1459         0.289571   
     30. A(C   1,C   2,H  10)          111.1520         0.324735   
     31. A(C   3,C   2,H   9)          112.0957         0.331448   
     32. A(C   1,C   2,H   9)          111.6468         0.325044   
     33. A(C   3,C   2,H  10)          109.8409         0.331130   
     34. A(C   4,C   3,H  11)          123.6302         0.334964   
     35. A(C   2,C   3,H  11)          124.3969         0.334092   
     36. A(C   2,C   3,C   4)          111.9391         0.382724   
     37. A(C   3,C   4,O  13)          108.6358         0.391767   
     38. A(C   0,C   4,O  13)          110.9662         0.382165   
     39. A(C   3,C   4,H  12)          112.7457         0.332341   
     40. A(C   0,C   4,H  12)          111.8487         0.324624   
     41. A(H  12,C   4,O  13)          109.1820         0.338944   
     42. A(C   0,C   4,C   3)          103.3358         0.374420   
     43. A(C   4,O  13,H  14)          107.9219         0.355515   
     44. D(C   2,C   1,C   0,H   6)   -159.3017         0.011373   
     45. D(C   2,C   1,C   0,H   5)     80.6259         0.011373   
     46. D(C   2,C   1,C   0,C   4)    -37.1413         0.011373   
     47. D(H   7,C   1,C   0,H   5)    -41.0722         0.011373   
     48. D(H   7,C   1,C   0,C   4)   -158.8394         0.011373   
     49. D(H   7,C   1,C   0,H   6)     79.0002         0.011373   
     50. D(H   9,C   2,C   1,C   0)    150.9045         0.011675   
     51. D(H   9,C   2,C   1,H   8)     32.7416         0.011675   
     52. D(H   9,C   2,C   1,H   7)    -87.3735         0.011675   
     53. D(C   3,C   2,C   1,C   0)     30.5284         0.011675   
     54. D(C   3,C   2,C   1,H   8)    -87.6346         0.011675   
     55. D(C   3,C   2,C   1,H   7)    152.2503         0.011675   
     56. D(C   4,C   3,C   2,H  10)    105.1408         0.013715   
     57. D(C   4,C   3,C   2,H   9)   -133.3393         0.013715   
     58. D(C   4,C   3,C   2,C   1)    -13.2724         0.013715   
     59. D(H  11,C   3,C   2,H   9)     48.7143         0.013715   
     60. D(H  11,C   3,C   2,C   1)    168.7811         0.013715   
     61. D(O  13,C   4,C   3,C   2)    108.5727         0.014143   
     62. D(H  12,C   4,C   3,C   2)   -130.2709         0.014143   
     63. D(C   0,C   4,C   3,H  11)    168.6317         0.014143   
     64. D(C   0,C   4,C   3,C   2)     -9.3332         0.014143   
     65. D(H  12,C   4,C   0,H   6)    -89.1827         0.011490   
     66. D(H  12,C   4,C   0,H   5)     32.5714         0.011490   
     67. D(H  12,C   4,C   0,C   1)    149.7491         0.011490   
     68. D(C   3,C   4,C   0,H   6)    149.2732         0.011490   
     69. D(H  12,C   4,C   3,H  11)     47.6940         0.014143   
     70. D(C   3,C   4,C   0,H   5)    -88.9727         0.011490   
     71. D(C   3,C   4,C   0,C   1)     28.2050         0.011490   
     72. D(H  14,O  13,C   4,H  12)   -166.2946         0.020679   
     73. D(H  14,O  13,C   4,C   3)    -42.9729         0.020679   
     74. D(H  14,O  13,C   4,C   0)     69.9755         0.020679   
    -----------------------------------------------------------------

Number of atoms                         .... 15
Number of degrees of freedom            .... 74


         *************************************************************
         *                GEOMETRY OPTIMIZATION CYCLE   1            *
         *************************************************************
---------------------------------
CARTESIAN COORDINATES (ANGSTROEM)
---------------------------------
  C     -0.100433    1.195431   -0.189285
  C     -0.787703    0.358580    0.887402
  C     -0.923034   -1.023698    0.261756
  C      0.259948   -1.095572   -0.643109
  C      0.893619    0.235595   -0.835825
  H     -0.845398    1.520664   -0.926004
  H      0.378118    2.081132    0.239930
  H     -1.755724    0.775896    1.180749
  H     -0.158439    0.308958    1.784891
  H     -0.910073   -1.811952    1.018816
  H     -1.844220   -1.103647   -0.324012
  H      0.600460   -1.996460   -1.131732
  H      1.063480    0.474266   -1.888676
  O      2.131019    0.250745   -0.150271
  H      1.998382   -0.169938    0.715369

----------------------------
CARTESIAN COORDINATES (A.U.)
----------------------------
  NO LB      ZA    FRAG     MASS         X           Y           Z
   0 C     4.0000*   0    12.011   -0.189791    2.259037   -0.357697
   1 C     4.0000*   0    12.011   -1.488543    0.677618    1.676947
   2 C     4.0000*   0    12.011   -1.744281   -1.934509    0.494647
   3 C     4.0000*   0    12.011    0.491231   -2.070331   -1.215300
   4 C     4.0000*   0    12.011    1.688695    0.445210   -1.579480
   5 H     1.0000    0     1.008   -1.597571    2.873639   -1.749894
   6 H     1.0000    0     1.008    0.714539    3.932770    0.453402
   7 H     1.0000    0     1.008   -3.317838    1.466231    2.231292
   8 H     1.0000    0     1.008   -0.299406    0.583846    3.372955
   9 H     1.0000    0     1.008   -1.719789   -3.424093    1.925283
  10 H     1.0000    0     1.008   -3.485071   -2.085591   -0.612294
  11 H     1.0000    0     1.008    1.134705   -3.772763   -2.138664
  12 H     1.0000    0     1.008    2.009686    0.896233   -3.569080
  13 O     6.0000*   0    15.999    4.027042    0.473839   -0.283971
  14 H     1.0000    0     1.008    3.776395   -0.321136    1.351851
* core charge reduced due to ECP

--------------------------------
INTERNAL COORDINATES (ANGSTROEM)
--------------------------------
 C      0   0   0     0.000000000000     0.00000000     0.00000000
 C      1   0   0     1.527060753562     0.00000000     0.00000000
 C      2   1   0     1.523299007471   104.34024170     0.00000000
 C      3   2   1     1.491104608143   102.85577771    30.52836497
 C      4   3   2     1.486836902551   111.93906125   346.72759154
 H      1   2   3     1.097043408656   109.28914206    80.62594681
 H      1   2   3     1.094396106182   111.33291742   200.69831948
 H      2   1   3     1.094198228250   112.22098234   238.30189161
 H      2   1   3     1.097233808129   110.08362232   118.26608528
 H      3   2   1     1.093001463694   111.64682581   150.90453904
 H      3   2   1     1.094577379184   111.15204554   273.03889304
 H      4   3   2     1.079953724387   124.39689232   168.78110820
 H      5   4   3     1.092845750215   112.74571622   229.72906879
 O      5   4   3     1.414698755713   108.63584440   108.57270963
 H     14   5   4     0.971544836772   107.92192056   317.02711211

---------------------------
INTERNAL COORDINATES (A.U.)
---------------------------
 C      0   0   0     0.000000000000     0.00000000     0.00000000
 C      1   0   0     2.885726614092     0.00000000     0.00000000
 C      2   1   0     2.878617944194   104.34024170     0.00000000
 C      3   2   1     2.817779346418   102.85577771    30.52836497
 C      4   3   2     2.809714551628   111.93906125   346.72759154
 H      1   2   3     2.073111599383   109.28914206    80.62594681
 H      1   2   3     2.068108922714   111.33291742   200.69831948
 H      2   1   3     2.067734987615   112.22098234   238.30189161
 H      2   1   3     2.073471402243   110.08362232   118.26608528
 H      3   2   1     2.065473430357   111.64682581   150.90453904
 H      3   2   1     2.068451479043   111.15204554   273.03889304
 H      4   3   2     2.040816776399   124.39689232   168.78110820
 H      5   4   3     2.065179174526   112.74571622   229.72906879
 O      5   4   3     2.673393210297   108.63584440   108.57270963
 H     14   5   4     1.835953668324   107.92192056   317.02711211

---------------------
BASIS SET INFORMATION
---------------------
There are 3 groups of distinct atoms

 Group   1 Type C   : 6s6p2d contracted to 2s2p1d pattern {42/42/2}
 Group   2 Type H   : 8s2p contracted to 2s1p pattern {53/2}
 Group   3 Type O   : 6s6p2d contracted to 2s2p1d pattern {42/42/2}

Atom   0C    basis set group =>   1
Atom   1C    basis set group =>   1
Atom   2C    basis set group =>   1
Atom   3C    basis set group =>   1
Atom   4C    basis set group =>   1
Atom   5H    basis set group =>   2
Atom   6H    basis set group =>   2
Atom   7H    basis set group =>   2
Atom   8H    basis set group =>   2
Atom   9H    basis set group =>   2
Atom  10H    basis set group =>   2
Atom  11H    basis set group =>   2
Atom  12H    basis set group =>   2
Atom  13O    basis set group =>   3
Atom  14H    basis set group =>   2
---------------------------------
AUXILIARY/J BASIS SET INFORMATION
---------------------------------
There are 3 groups of distinct atoms

 Group   1 Type C   : 12s5p4d2f1g contracted to 6s4p3d1f1g pattern {711111/2111/211/2/1}
 Group   2 Type H   : 5s2p1d contracted to 3s1p1d pattern {311/2/1}
 Group   3 Type O   : 12s5p4d2f1g contracted to 6s4p3d1f1g pattern {711111/2111/211/2/1}

Atom   0C    basis set group =>   1
Atom   1C    basis set group =>   1
Atom   2C    basis set group =>   1
Atom   3C    basis set group =>   1
Atom   4C    basis set group =>   1
Atom   5H    basis set group =>   2
Atom   6H    basis set group =>   2
Atom   7H    basis set group =>   2
Atom   8H    basis set group =>   2
Atom   9H    basis set group =>   2
Atom  10H    basis set group =>   2
Atom  11H    basis set group =>   2
Atom  12H    basis set group =>   2
Atom  13O    basis set group =>   3
Atom  14H    basis set group =>   2
-------------------------
ECP PARAMETER INFORMATION
-------------------------

 Group 1, Type C  ECP vDZP-ECP (replacing 2 core electrons, lmax=3)
 Group 2, Type O  ECP vDZP-ECP (replacing 2 core electrons, lmax=3)

Atom   0C    ECP group =>   1
Atom   1C    ECP group =>   1
Atom   2C    ECP group =>   1
Atom   3C    ECP group =>   1
Atom   4C    ECP group =>   1
Atom  13O    ECP group =>   2

------------------------------------------------------------------------------
                             ORCA STARTUP CALCULATIONS
                           -- RI-GTO INTEGRALS CHOSEN --
------------------------------------------------------------------------------
------------------------------------------------------------------------------
                   ___                                                        
                  /   \      - P O W E R E D   B Y -                         
                 /     \                                                     
                 |  |  |   _    _      __       _____    __    __             
                 |  |  |  | |  | |    /  \     |  _  \  |  |  /  |          
                  \  \/   | |  | |   /    \    | | | |  |  | /  /          
                 / \  \   | |__| |  /  /\  \   | |_| |  |  |/  /          
                |  |  |   |  __  | /  /__\  \  |    /   |      \           
                |  |  |   | |  | | |   __   |  |    \   |  |\   \          
                \     /   | |  | | |  |  |  |  | |\  \  |  | \   \       
                 \___/    |_|  |_| |__|  |__|  |_| \__\ |__|  \__/        
                                                                              
                      - O R C A' S   B I G   F R I E N D -                    
                                      &                                       
                       - I N T E G R A L  F E E D E R -                       
                                                                              
 v1 FN, 2020, v2 2021, v3 2022-2024                                           
------------------------------------------------------------------------------


----------------------
SHARK INTEGRAL PACKAGE
----------------------

Number of atoms                             ...     15
Number of basis functions                   ...    123
Number of shells                            ...     57
Maximum angular momentum                    ...      2
Integral batch strategy                     ... SHARK/LIBINT Hybrid
RI-J (if used) integral strategy            ... SPLIT-RIJ (Revised 2003 algorithm where possible)
Printlevel                                  ...      1
Contraction scheme used                     ... SEGMENTED contraction
Prescreening option                         ... SCHWARTZ
   Thresh                                   ... 2.500e-11
   Tcut                                     ... 2.500e-12
   Tpresel                                  ... 2.500e-12 
Coulomb Range Separation                    ... NOT USED
Exchange Range Separation                   ... Long Range
   Mu parameter                             ... 3.000e-01
   Scaling (regular/separated)              ... 1.670e-01 8.330e-01
Robust (split-)RI terms used:
  metric    (central integrals)             ... YES
  density   (r.h.s.  integrals)             ... YES
  potential (l.h.s.  integrals)             ... YES
Multipole approximations                    ... NOT USED
Finite Nucleus Model                        ... NOT USED
CABS basis                                  ... NOT available
Auxiliary Coulomb fitting basis             ... AVAILABLE
   # of basis functions in Aux-J            ...    393
   # of shells in Aux-J                     ...    135
   Maximum angular momentum in Aux-J        ...      4
Auxiliary J/K fitting basis                 ... NOT available
Auxiliary Correlation fitting basis         ... NOT available
Auxiliary 'external' fitting basis          ... NOT available

Checking pre-screening integrals            ... done (  0.0 sec) Dimension = 57
   => SHARK Basis and OBASIS are compatible. Storing Pre-screening
Shell pair information
Shell pair cut-off parameter TPreSel        ...   2.5e-12
Total number of shell pairs                 ...      1653
Shell pairs after pre-screening             ...      1653
Total number of primitive shell pairs       ...     15441
Primitive shell pairs kept                  ...     13974
          la=0 lb=0:    465 shell pairs
          la=1 lb=0:    630 shell pairs
          la=1 lb=1:    231 shell pairs
          la=2 lb=0:    180 shell pairs
          la=2 lb=1:    126 shell pairs
          la=2 lb=2:     21 shell pairs

Checking whether 4 symmetric matrices of dimension 123 fit in memory
:Max Core in MB      =   4096.00
 MB in use           =      6.98
 MB left             =   4089.02
 MB needed           =      0.23
 Data fit in memory  = YES
Calculating RI/J V-Matrix + Cholesky decomp.... done (  0.0 sec)
Calculating Nuclear repulsion               ... done (  0.0 sec) ENN=    137.140291148630 Eh

Diagonalization of the overlap matrix:
Smallest eigenvalue                        ... 1.629e-03
Time for diagonalization                   ...    0.001 sec
Threshold for overlap eigenvalues          ... 1.000e-07
Number of eigenvalues below threshold      ... 0
Time for construction of square roots      ...    0.001 sec
Total time needed                          ...    0.002 sec

-------------------
DFT GRID GENERATION
-------------------

General Integration Accuracy     IntAcc      ... 4.388
Radial Grid Type                 RadialGrid  ... OptM3 with GC (2021)
Angular Grid (max. ang.)         AngularGrid ... 4 (Lebedev-302)
Angular grid pruning method      GridPruning ... 4 (adaptive)
Weight generation scheme         WeightScheme... mBecke (2022)
Basis function cutoff            BFCut       ... 1.0000e-11
Integration weight cutoff        WCut        ... 1.0000e-14
Partially contracted basis set               ... off
Rotationally invariant grid construction     ... off
Angular grids for H and He will be reduced by one unit

Total number of grid points                  ...    64961
Total number of batches                      ...     1023
Average number of points per batch           ...       63
Average number of grid points per atom       ...     4331

--------------------
COSX GRID GENERATION
--------------------

GRIDX 1
-------
General Integration Accuracy     IntAcc      ... 3.816
Radial Grid Type                 RadialGrid  ... OptM3 with GC (2021)
Angular Grid (max. ang.)         AngularGrid ... 1 (Lebedev-50)
Angular grid pruning method      GridPruning ... 4 (adaptive)
Weight generation scheme         WeightScheme... mBecke (2022)
Basis function cutoff            BFCut       ... 1.0000e-11
Integration weight cutoff        WCut        ... 1.0000e-14
Partially contracted basis set               ... on
Rotationally invariant grid construction     ... off
Angular grids for H and He will be reduced by one unit

Total number of grid points                  ...     8332
Total number of batches                      ...       76
Average number of points per batch           ...      109
Average number of grid points per atom       ...      555
UseSFitting                                  ... on

GRIDX 2
-------
General Integration Accuracy     IntAcc      ... 4.020
Radial Grid Type                 RadialGrid  ... OptM3 with GC (2021)
Angular Grid (max. ang.)         AngularGrid ... 2 (Lebedev-110)
Angular grid pruning method      GridPruning ... 4 (adaptive)
Weight generation scheme         WeightScheme... mBecke (2022)
Basis function cutoff            BFCut       ... 1.0000e-11
Integration weight cutoff        WCut        ... 1.0000e-14
Partially contracted basis set               ... on
Rotationally invariant grid construction     ... off
Angular grids for H and He will be reduced by one unit

Total number of grid points                  ...    17605
Total number of batches                      ...      145
Average number of points per batch           ...      121
Average number of grid points per atom       ...     1174
UseSFitting                                  ... on

GRIDX 3
-------
General Integration Accuracy     IntAcc      ... 4.338
Radial Grid Type                 RadialGrid  ... OptM3 with GC (2021)
Angular Grid (max. ang.)         AngularGrid ... 3 (Lebedev-194)
Angular grid pruning method      GridPruning ... 4 (adaptive)
Weight generation scheme         WeightScheme... mBecke (2022)
Basis function cutoff            BFCut       ... 1.0000e-11
Integration weight cutoff        WCut        ... 1.0000e-14
Partially contracted basis set               ... on
Rotationally invariant grid construction     ... off
Angular grids for H and He will be reduced by one unit

Total number of grid points                  ...    38544
Total number of batches                      ...      309
Average number of points per batch           ...      124
Average number of grid points per atom       ...     2570
UseSFitting                                  ... on
Grids setup in   1.0 sec
Initializing property integral containers    ... done (  0.0 sec)

SHARK setup successfully completed in   1.2 seconds

Maximum memory used throughout the entire STARTUP-calculation: 30.5 MB
-------------------------------------------------------------------------------
                                 ORCA GUESS
                   Start orbitals & Density for SCF / CASSCF
-------------------------------------------------------------------------------

------------
SCF SETTINGS
------------
Hamiltonian:
 Density Functional     Method          .... DFT(GTOs)
 Exchange Functional    Exchange        .... WB97X-V
 Correlation Functional Correlation     .... WB97X-V
 Gradients option       PostSCFGGA      .... off
 Hybrid DFT is turned on
   Fraction HF Exchange ScalHFX         ....  0.167000
   Scaling of DF-GGA-X  ScalDFX         ....  0.000000
   Scaling of DF-GGA-C  ScalDFC         ....  1.000000
   Scaling of DF-LDA-C  ScalLDAC        ....  1.000000
   Perturbative correction              ....  0.000000
 Long-range corrected/Screened/Range-Separated Hybrid DFT is turned on
   Amount of maximum screened exact exchange              ....  0.833000
   Range separation parameter mu (erf(mu*r12)/r12)        ....  0.300000
   NL short-range parameter             ....  6.000000
   NL long-range parameter              ....  0.010000
 RI-approximation to the Coulomb term is turned on
   Number of AuxJ basis functions       .... 393
   RIJ-COSX (HFX calculated with COS-X)).... on


General Settings:
 Integral files         IntName         .... opt
 Hartree-Fock type      HFTyp           .... UHF
 Total Charge           Charge          ....    0
 Multiplicity           Mult            ....    2
 Number of Electrons    NEL             ....   35
 Basis Dimension        Dim             ....  123
 Nuclear Repulsion      ENuc            ....    137.1402911486 Eh

Convergence Acceleration:
 AO-DIIS                CNVDIIS         .... on
   Start iteration      DIISMaxIt       ....    12
   Startup error        DIISStart       ....  0.200000
   # of expansion vecs  DIISMaxEq       ....     5
   Bias factor          DIISBfac        ....   1.050
   Max. coefficient     DIISMaxC        ....  10.000
 MO-DIIS                CNVKDIIS        .... off
 Trust-Rad. Augm. Hess. CNVTRAH         .... auto
   Auto Start mean grad. ratio tolernc. ....  1.125000
   Auto Start start iteration           ....    50
   Auto Start num. interpolation iter.  ....    10
   Max. Number of Micro iterations      ....    24
   Max. Number of Macro iterations      .... Maxiter - #DIIS iter
   Number of Davidson start vectors     ....     2
   Converg. threshold    (grad. norm)   ....   1.000e-05
   Grad. Scal. Fac. for Micro threshold ....   0.100
   Minimum threshold for Micro iter.    ....   1.000e-02
   NR start threshold (gradient norm)   ....   1.000e-04
   Initial trust radius                 ....   0.400
   Minimum AH scaling param. (alpha)    ....   1.000
   Maximum AH scaling param. (alpha)    .... 1000.000
   Quad. conv. algorithm                .... NR
   White noise on init. David. guess    .... on
   Maximum white noise                  ....   0.010
   Pseudo random numbers                .... off
   Inactive MOs                         .... canonical
   Orbital update algorithm             .... Taylor
   Preconditioner                       .... Diag
   Full preconditioner red. dimension   ....   250
 SOSCF                 CNVSOSCF           .... on
   Start iteration     SOSCFMaxIt         ....   150
   Startup grad/error  SOSCFStart         ....  0.003300
   Hessian update      SOSCFHessUp        .... L-BFGS
   Autom. constraints  SOSCFAutoConstrain .... off
 Level Shifting         CNVShift        .... on
   Level shift para.    LevelShift      ....    0.2500
   Turn off err/grad.   ShiftErr        ....    0.0010
 Zerner damping         CNVZerner       .... off
 Static damping         CNVDamp         .... on
   Fraction old density DampFac         ....    0.7000
   Max. Damping (<1)    DampMax         ....    0.9800
   Min. Damping (>=0)   DampMin         ....    0.0000
   Turn off err/grad.   DampErr         ....    0.1000

SCF Procedure:
 Maximum # iterations   MaxIter         ....   125
 SCF integral mode      SCFMode         .... Direct
   Integral package                     .... SHARK and LIBINT hybrid scheme
 Reset frequency        DirectResetFreq ....    20
 Integral Threshold     Thresh          ....  2.500e-11 Eh
 Primitive CutOff       TCut            ....  2.500e-12 Eh

Convergence Tolerance:
 Convergence Check Mode ConvCheckMode   .... Total+1el-Energy
 Convergence forced     ConvForced      .... 0
 Energy Change          TolE            ....  1.000e-08 Eh
 1-El. energy change                    ....  1.000e-05 Eh
 Orbital Gradient       TolG            ....  1.000e-05
 Orbital Rotation angle TolX            ....  1.000e-05
 DIIS Error             TolErr          ....  5.000e-07

------------------------------
INITIAL GUESS: MODEL POTENTIAL
------------------------------
Loading Hartree-Fock densities                     ... done
Atomic calculation to generate a density for atom 0 (C  with ECP)
  Multiplicity assumed   :    1
  Atomic configuration   : 1s2 2s2 2p2 
  Number of open shells  : 1
  Command: /software/software/custom-built/orca/orca_6_1_0_linux_x86-64_shared_openmpi418_avx2/orca opt_atom6.inp "" > opt_atom6.out
Returned from the atomic calculation with res=0
Atomic calculation to generate a density for atom 13 (O  with ECP)
  Multiplicity assumed   :    3
  Atomic configuration   : 1s2 2s2 2p4 
  Number of open shells  : 1
  Command: /software/software/custom-built/orca/orca_6_1_0_linux_x86-64_shared_openmpi418_avx2/orca opt_atom8.inp "" > opt_atom8.out
Returned from the atomic calculation with res=0
Calculating cut-offs                               ... done
Initializing the effective Hamiltonian             ... done
Setting up the integral package (SHARK)            ... done
Starting the Coulomb interaction                   ... done (   0.2 sec)
Making the grid                                    ... done (   0.1 sec)
Mapping shells                                     ... done
Starting the XC term evaluation                    ... done (   0.2 sec)
  promolecular density results
     # of electrons  =     46.998175240
     EX              =    -24.325075187
     EC              =     -1.906061082
     EX+EC           =    -26.231136269
Transforming the Hamiltonian                       ... done (   0.0 sec)
Diagonalizing the Hamiltonian                      ... done (   0.0 sec)
Back transforming the eigenvectors                 ... done (   0.0 sec)
Now organizing SCF variables                       ... done
                      ------------------
                      INITIAL GUESS DONE (   1.2 sec)
                      ------------------
             **** ENERGY FILE WAS UPDATED (opt.en.tmp) ****
Finished Guess after   1.3 sec
Maximum memory used throughout the entire GUESS-calculation: 13.3 MB

-------------------------------------------------------------------------------------------
                                      ORCA LEAN-SCF
                              memory conserving SCF solver
-------------------------------------------------------------------------------------------

----------------------------------------D-I-I-S--------------------------------------------
Iteration    Energy (Eh)           Delta-E    RMSDP     MaxDP     DIISErr   Damp  Time(sec)
-------------------------------------------------------------------------------------------
               ***  Starting incremental Fock matrix formation  ***
    1    -49.6362877697345937     0.00e+00  2.28e-03  3.61e-02  1.01e-01  0.700  11.1
    2    -49.7426198910258961    -1.06e-01  1.66e-03  2.48e-02  5.87e-02  0.700   5.6
                               ***Turning on AO-DIIS***
    3    -49.7964701485666410    -5.39e-02  8.27e-04  1.11e-02  2.98e-02  0.700   5.6
    4    -49.8284333319489861    -3.20e-02  1.74e-03  2.40e-02  2.04e-02  0.000   5.5
                              *** Initializing SOSCF ***
---------------------------------------S-O-S-C-F--------------------------------------
Iteration    Energy (Eh)           Delta-E    RMSDP     MaxDP     MaxGrad    Time(sec)
--------------------------------------------------------------------------------------
    5    -49.8970480593400225    -6.86e-02  1.91e-04  5.32e-03  3.04e-03     5.6
               *** Restarting incremental Fock matrix formation ***
    6    -49.8973850986294849    -3.37e-04  1.46e-04  3.81e-03  3.14e-03    11.0
    7    -49.8975070921155179    -1.22e-04  1.49e-04  4.11e-03  1.08e-03     9.8
    8    -49.8975395761635525    -3.25e-05  4.37e-05  9.40e-04  5.71e-04     9.8
    9    -49.8975483368780033    -8.76e-06  8.34e-06  1.11e-04  8.68e-05     9.4
   10    -49.8975485903060587    -2.53e-07  3.81e-06  6.89e-05  6.01e-05     8.6
   11    -49.8975486902487830    -9.99e-08  1.36e-06  3.16e-05  2.66e-05     8.1
   12    -49.8975487044592683    -1.42e-08  5.13e-07  1.09e-05  8.17e-06     7.4
   13    -49.8975487094738810    -5.01e-09  1.90e-07  4.99e-06  2.23e-06     6.7
                 **** Energy Check signals convergence ****

               *****************************************************
               *                     SUCCESS                       *
               *           SCF CONVERGED AFTER  13 CYCLES          *
               *****************************************************

Recomputing exchange energy using gridx3       ... done (   20.904 sec)
Old exchange energy                            :     -6.834116224 Eh
New exchange energy                            :     -6.834105852 Eh
Exchange energy change after final integration :      0.000010372 Eh
Total energy after final integration           :    -49.897538336 Eh
             **** ENERGY FILE WAS UPDATED (opt.en.tmp) ****

----------------
TOTAL SCF ENERGY
----------------

Total Energy       :        -49.89753833609863 Eh           -1357.78105 eV

Components:
Nuclear Repulsion  :        137.14029114862973 Eh            3731.77704 eV
Electronic Energy  :       -187.03783985652896 Eh           -5089.55837 eV
One Electron Energy:       -347.18234952053615 Eh           -9447.31202 eV
Two Electron Energy:        160.14450966400719 Eh            4357.75365 eV

Virial components:
Potential Energy   :        -89.33241493872190 Eh           -2430.85859 eV
Kinetic Energy     :         39.43487660262326 Eh            1073.07755 eV
Virial Ratio       :          2.26531493527685

DFT components:
N(Alpha)           :       17.999924766881 electrons
N(Beta)            :       16.999941083176 electrons
N(Total)           :       34.999865850058 electrons
E(X)               :       -7.525341654162 Eh       
E(C)               :       -1.319699001318 Eh       
E(XC)              :       -8.845040655481 Eh       

---------------
SCF CONVERGENCE
---------------

  Last Energy change         ...    5.0146e-09  Tolerance :   1.0000e-08
  Last MAX-Density change    ...    4.9876e-06  Tolerance :   1.0000e-07
  Last RMS-Density change    ...    1.8981e-07  Tolerance :   5.0000e-09
  Last DIIS Error            ...    3.0365e-03  Tolerance :   5.0000e-07
  Last Orbital Gradient      ...    2.2312e-06  Tolerance :   1.0000e-05
  Last Orbital Rotation      ...    8.7750e-06  Tolerance :   1.0000e-05


----------------------
UHF SPIN CONTAMINATION
----------------------

Warning: in a DFT calculation there is little theoretical justification to 
         calculate <S**2> as in Hartree-Fock theory. We will do it anyways
         but you should keep in mind that the values have only limited relevance

Expectation value of <S**2>     :     0.754335
Ideal value S*(S+1) for S=0.5   :     0.750000
Deviation                       :     0.004335

----------------
ORBITAL ENERGIES
----------------
                 SPIN UP ORBITALS
  NO   OCC          E(Eh)            E(eV) 
   0   1.0000      -1.149893       -31.2902 
   1   1.0000      -0.982404       -26.7326 
   2   1.0000      -0.852329       -23.1931 
   3   1.0000      -0.843439       -22.9511 
   4   1.0000      -0.705968       -19.2104 
   5   1.0000      -0.701668       -19.0934 
   6   1.0000      -0.631867       -17.1940 
   7   1.0000      -0.609647       -16.5893 
   8   1.0000      -0.571567       -15.5531 
   9   1.0000      -0.535759       -14.5787 
  10   1.0000      -0.527279       -14.3480 
  11   1.0000      -0.488878       -13.3030 
  12   1.0000      -0.465319       -12.6620 
  13   1.0000      -0.451374       -12.2825 
  14   1.0000      -0.446023       -12.1369 
  15   1.0000      -0.433725       -11.8023 
  16   1.0000      -0.382896       -10.4191 
  17   1.0000      -0.300681        -8.1819 
  18   0.0000       0.080314         2.1854 
  19   0.0000       0.091261         2.4833 
  20   0.0000       0.111166         3.0250 
  21   0.0000       0.116711         3.1759 
  22   0.0000       0.135411         3.6847 
  23   0.0000       0.141668         3.8550 
  24   0.0000       0.148990         4.0542 
  25   0.0000       0.165061         4.4915 
  26   0.0000       0.180625         4.9151 
  27   0.0000       0.260836         7.0977 
  28   0.0000       0.272099         7.4042 

                 SPIN DOWN ORBITALS
  NO   OCC          E(Eh)            E(eV) 
   0   1.0000      -1.144505       -31.1436 
   1   1.0000      -0.974740       -26.5240 
   2   1.0000      -0.847895       -23.0724 
   3   1.0000      -0.830145       -22.5894 
   4   1.0000      -0.704061       -19.1585 
   5   1.0000      -0.687473       -18.7071 
   6   1.0000      -0.624974       -17.0064 
   7   1.0000      -0.603702       -16.4276 
   8   1.0000      -0.568132       -15.4596 
   9   1.0000      -0.527513       -14.3544 
  10   1.0000      -0.515640       -14.0313 
  11   1.0000      -0.485685       -13.2162 
  12   1.0000      -0.459402       -12.5010 
  13   1.0000      -0.449764       -12.2387 
  14   1.0000      -0.442674       -12.0458 
  15   1.0000      -0.426951       -11.6179 
  16   1.0000      -0.377808       -10.2807 
  17   0.0000       0.020207         0.5499 
  18   0.0000       0.083846         2.2816 
  19   0.0000       0.091856         2.4995 
  20   0.0000       0.112614         3.0644 
  21   0.0000       0.117681         3.2023 
  22   0.0000       0.139367         3.7924 
  23   0.0000       0.144679         3.9369 
  24   0.0000       0.149919         4.0795 
  25   0.0000       0.165861         4.5133 
  26   0.0000       0.183725         4.9994 
  27   0.0000       0.264664         7.2019 
*Only the first 10 virtual orbitals were printed.

                    ********************************
                    * MULLIKEN POPULATION ANALYSIS *
                    ********************************

--------------------------------------------
MULLIKEN ATOMIC CHARGES AND SPIN POPULATIONS
--------------------------------------------
   0 C :   -0.051029    0.000172
   1 C :   -0.073126    0.007500
   2 C :   -0.057238   -0.061126
   3 C :   -0.072855    0.983451
   4 C :    0.092050   -0.045954
   5 H :    0.034529    0.000966
   6 H :    0.050507   -0.000224
   7 H :    0.042662   -0.000383
   8 H :    0.025380    0.001055
   9 H :    0.049034    0.020986
  10 H :    0.046873    0.049153
  11 H :    0.031468   -0.018193
  12 H :    0.043236    0.016689
  13 O :   -0.311247    0.048212
  14 H :    0.149756   -0.002305
Sum of atomic charges         :   -0.0000000
Sum of atomic spin populations:    1.0000000

-----------------------------------------------------
MULLIKEN REDUCED ORBITAL CHARGES AND SPIN POPULATIONS
-----------------------------------------------------
CHARGE
  0 C s       :     0.982018  s :     0.982018
      pz      :     0.990523  p :     2.974419
      px      :     0.997310
      py      :     0.986586
      dz2     :     0.013848  d :     0.094593
      dxz     :     0.025684
      dyz     :     0.019588
      dx2y2   :     0.014802
      dxy     :     0.020671

  1 C s       :     0.995626  s :     0.995626
      pz      :     0.989459  p :     2.977378
      px      :     1.042272
      py      :     0.945647
      dz2     :     0.017781  d :     0.100122
      dxz     :     0.023662
      dyz     :     0.019994
      dx2y2   :     0.020021
      dxy     :     0.018664

  2 C s       :     0.969623  s :     0.969623
      pz      :     1.006537  p :     2.984866
      px      :     0.994942
      py      :     0.983387
      dz2     :     0.015141  d :     0.102749
      dxz     :     0.023311
      dyz     :     0.024784
      dx2y2   :     0.026940
      dxy     :     0.012572

  3 C s       :     1.109725  s :     1.109725
      pz      :     0.971440  p :     2.882147
      px      :     0.949718
      py      :     0.960990
      dz2     :     0.010802  d :     0.080982
      dxz     :     0.011149
      dyz     :     0.018278
      dx2y2   :     0.021738
      dxy     :     0.019016

  4 C s       :     1.034153  s :     1.034153
      pz      :     0.992424  p :     2.697295
      px      :     0.742381
      py      :     0.962490
      dz2     :     0.039007  d :     0.176501
      dxz     :     0.031376
      dyz     :     0.023307
      dx2y2   :     0.036071
      dxy     :     0.046740

  5 H s       :     0.921924  s :     0.921924
      pz      :     0.016073  p :     0.043547
      px      :     0.016735
      py      :     0.010739

  6 H s       :     0.906465  s :     0.906465
      pz      :     0.012259  p :     0.043028
      px      :     0.012392
      py      :     0.018377

  7 H s       :     0.913616  s :     0.913616
      pz      :     0.010880  p :     0.043722
      px      :     0.020135
      py      :     0.012707

  8 H s       :     0.931307  s :     0.931307
      pz      :     0.018734  p :     0.043313
      px      :     0.014193
      py      :     0.010386

  9 H s       :     0.906633  s :     0.906633
      pz      :     0.016937  p :     0.044333
      px      :     0.010010
      py      :     0.017385

 10 H s       :     0.908343  s :     0.908343
      pz      :     0.014287  p :     0.044784
      px      :     0.020372
      py      :     0.010125

 11 H s       :     0.919488  s :     0.919488
      pz      :     0.015563  p :     0.049044
      px      :     0.013444
      py      :     0.020037

 12 H s       :     0.916217  s :     0.916217
      pz      :     0.021859  p :     0.040547
      px      :     0.007210
      py      :     0.011478

 13 O s       :     1.645494  s :     1.645494
      pz      :     1.356048  p :     4.634711
      px      :     1.481687
      py      :     1.796976
      dz2     :     0.007112  d :     0.031042
      dxz     :     0.006901
      dyz     :     0.005096
      dx2y2   :     0.007274
      dxy     :     0.004659

 14 H s       :     0.746754  s :     0.746754
      pz      :     0.039848  p :     0.103489
      px      :     0.025664
      py      :     0.037977


SPIN
  0 C s       :    -0.000178  s :    -0.000178
      pz      :     0.000574  p :    -0.000184
      px      :    -0.000951
      py      :     0.000192
      dz2     :    -0.000021  d :     0.000534
      dxz     :    -0.000031
      dyz     :     0.000336
      dx2y2   :     0.000017
      dxy     :     0.000233

  1 C s       :     0.001143  s :     0.001143
      pz      :     0.001570  p :     0.006379
      px      :     0.000923
      py      :     0.003886
      dz2     :    -0.000078  d :    -0.000021
      dxz     :    -0.000102
      dyz     :    -0.000075
      dx2y2   :     0.000515
      dxy     :    -0.000281

  2 C s       :    -0.015400  s :    -0.015400
      pz      :    -0.029232  p :    -0.066928
      px      :    -0.031634
      py      :    -0.006061
      dz2     :     0.009417  d :     0.021202
      dxz     :     0.003288
      dyz     :     0.000669
      dx2y2   :     0.007645
      dxy     :     0.000183

  3 C s       :     0.070061  s :     0.070061
      pz      :     0.525812  p :     0.916624
      px      :     0.346544
      py      :     0.044268
      dz2     :    -0.000547  d :    -0.003234
      dxz     :    -0.001516
      dyz     :    -0.000470
      dx2y2   :    -0.000715
      dxy     :     0.000013

  4 C s       :    -0.011480  s :    -0.011480
      pz      :    -0.015709  p :    -0.051052
      px      :    -0.008456
      py      :    -0.026886
      dz2     :     0.000969  d :     0.016578
      dxz     :     0.003548
      dyz     :     0.006488
      dx2y2   :     0.004716
      dxy     :     0.000857

  5 H s       :     0.001011  s :     0.001011
      pz      :    -0.000006  p :    -0.000045
      px      :     0.000014
      py      :    -0.000053

  6 H s       :    -0.000210  s :    -0.000210
      pz      :    -0.000018  p :    -0.000014
      px      :     0.000003
      py      :     0.000002

  7 H s       :    -0.000418  s :    -0.000418
      pz      :     0.000006  p :     0.000035
      px      :     0.000014
      py      :     0.000015

  8 H s       :     0.000938  s :     0.000938
      pz      :     0.000021  p :     0.000117
      px      :     0.000100
      py      :    -0.000004

  9 H s       :     0.021434  s :     0.021434
      pz      :     0.000009  p :    -0.000448
      px      :    -0.000573
      py      :     0.000116

 10 H s       :     0.049483  s :     0.049483
      pz      :     0.000214  p :    -0.000331
      px      :    -0.000630
      py      :     0.000085

 11 H s       :    -0.031979  s :    -0.031979
      pz      :     0.007625  p :     0.013785
      px      :     0.005314
      py      :     0.000847

 12 H s       :     0.016518  s :     0.016518
      pz      :     0.000009  p :     0.000172
      px      :     0.000012
      py      :     0.000150

 13 O s       :    -0.002985  s :    -0.002985
      pz      :     0.003808  p :     0.051490
      px      :     0.030844
      py      :     0.016837
      dz2     :    -0.000128  d :    -0.000293
      dxz     :     0.000015
      dyz     :    -0.000030
      dx2y2   :     0.000051
      dxy     :    -0.000200

 14 H s       :    -0.001791  s :    -0.001791
      pz      :     0.000246  p :    -0.000514
      px      :    -0.000326
      py      :    -0.000434



                     *******************************
                     * LOEWDIN POPULATION ANALYSIS *
                     *******************************

-------------------------------------------
LOEWDIN ATOMIC CHARGES AND SPIN POPULATIONS
-------------------------------------------
   0 C :   -0.072941    0.001796
   1 C :   -0.082700    0.003754
   2 C :   -0.099742    0.038575
   3 C :    0.023059    0.750917
   4 C :   -0.067621    0.030271
   5 H :    0.047014    0.000945
   6 H :    0.048430    0.001026
   7 H :    0.043915   -0.000032
   8 H :    0.040075    0.000140
   9 H :    0.047324    0.017322
  10 H :    0.049321    0.038664
  11 H :    0.014317    0.039695
  12 H :    0.054602    0.012444
  13 O :   -0.078017    0.059748
  14 H :    0.032962    0.004734

----------------------------------------------------
LOEWDIN REDUCED ORBITAL CHARGES AND SPIN POPULATIONS
----------------------------------------------------
CHARGE
  0 C s       :     0.762590  s :     0.762590
      pz      :     0.993966  p :     2.999767
      px      :     1.004877
      py      :     1.000924
      dz2     :     0.046592  d :     0.310584
      dxz     :     0.081198
      dyz     :     0.063677
      dx2y2   :     0.050417
      dxy     :     0.068700

  1 C s       :     0.758298  s :     0.758298
      pz      :     1.005619  p :     2.999760
      px      :     1.043637
      py      :     0.950504
      dz2     :     0.059776  d :     0.324642
      dxz     :     0.078031
      dyz     :     0.062727
      dx2y2   :     0.062741
      dxy     :     0.061368

  2 C s       :     0.756144  s :     0.756144
      pz      :     1.014055  p :     3.013981
      px      :     1.012257
      py      :     0.987669
      dz2     :     0.044014  d :     0.329616
      dxz     :     0.075336
      dyz     :     0.081583
      dx2y2   :     0.086293
      dxy     :     0.042390

  3 C s       :     0.843022  s :     0.843022
      pz      :     0.914298  p :     2.865881
      px      :     0.930232
      py      :     1.021351
      dz2     :     0.036800  d :     0.268038
      dxz     :     0.036281
      dyz     :     0.061272
      dx2y2   :     0.070519
      dxy     :     0.063166

  4 C s       :     0.745236  s :     0.745236
      pz      :     0.991751  p :     2.808984
      px      :     0.832298
      py      :     0.984935
      dz2     :     0.117254  d :     0.513401
      dxz     :     0.089269
      dyz     :     0.066431
      dx2y2   :     0.111553
      dxy     :     0.128893

  5 H s       :     0.803007  s :     0.803007
      pz      :     0.053077  p :     0.149979
      px      :     0.054200
      py      :     0.042702

  6 H s       :     0.802078  s :     0.802078
      pz      :     0.046038  p :     0.149492
      px      :     0.044553
      py      :     0.058900

  7 H s       :     0.804806  s :     0.804806
      pz      :     0.043369  p :     0.151279
      px      :     0.062121
      py      :     0.045789

  8 H s       :     0.808550  s :     0.808550
      pz      :     0.059378  p :     0.151375
      px      :     0.051611
      py      :     0.040385

  9 H s       :     0.799873  s :     0.799873
      pz      :     0.054474  p :     0.152803
      px      :     0.042101
      py      :     0.056228

 10 H s       :     0.795663  s :     0.795663
      pz      :     0.050108  p :     0.155016
      px      :     0.064082
      py      :     0.040826

 11 H s       :     0.817115  s :     0.817115
      pz      :     0.056607  p :     0.168568
      px      :     0.048266
      py      :     0.063694

 12 H s       :     0.804354  s :     0.804354
      pz      :     0.067620  p :     0.141043
      px      :     0.029982
      py      :     0.043442

 13 O s       :     1.381122  s :     1.381122
      pz      :     1.404008  p :     4.619680
      px      :     1.502306
      py      :     1.713367
      dz2     :     0.021429  d :     0.077215
      dxz     :     0.016364
      dyz     :     0.013534
      dx2y2   :     0.014172
      dxy     :     0.011717

 14 H s       :     0.642530  s :     0.642530
      pz      :     0.129187  p :     0.324508
      px      :     0.081574
      py      :     0.113747


SPIN
  0 C s       :    -0.000029  s :    -0.000029
      pz      :     0.000746  p :     0.000949
      px      :     0.000235
      py      :    -0.000032
      dz2     :    -0.000091  d :     0.000876
      dxz     :    -0.000062
      dyz     :     0.000614
      dx2y2   :     0.000070
      dxy     :     0.000346

  1 C s       :     0.000484  s :     0.000484
      pz      :     0.000342  p :     0.003481
      px      :     0.000321
      py      :     0.002817
      dz2     :    -0.000389  d :    -0.000211
      dxz     :    -0.000069
      dyz     :    -0.000084
      dx2y2   :     0.000909
      dxy     :    -0.000578

  2 C s       :    -0.003269  s :    -0.003269
      pz      :    -0.007069  p :    -0.020677
      px      :    -0.010897
      py      :    -0.002711
      dz2     :     0.026703  d :     0.062521
      dxz     :     0.010357
      dyz     :     0.002080
      dx2y2   :     0.022531
      dxy     :     0.000851

  3 C s       :     0.022996  s :     0.022996
      pz      :     0.425089  p :     0.733419
      px      :     0.277996
      py      :     0.030334
      dz2     :    -0.000539  d :    -0.005498
      dxz     :    -0.001830
      dyz     :    -0.001020
      dx2y2   :    -0.001582
      dxy     :    -0.000527

  4 C s       :    -0.002405  s :    -0.002405
      pz      :    -0.002488  p :    -0.013466
      px      :     0.002297
      py      :    -0.013276
      dz2     :     0.002903  d :     0.046142
      dxz     :     0.009070
      dyz     :     0.018084
      dx2y2   :     0.012441
      dxy     :     0.003644

  5 H s       :     0.001006  s :     0.001006
      pz      :     0.000009  p :    -0.000061
      px      :     0.000006
      py      :    -0.000076

  6 H s       :     0.001132  s :     0.001132
      pz      :    -0.000002  p :    -0.000106
      px      :    -0.000006
      py      :    -0.000098

  7 H s       :    -0.000133  s :    -0.000133
      pz      :     0.000008  p :     0.000101
      px      :     0.000016
      py      :     0.000076

  8 H s       :    -0.000293  s :    -0.000293
      pz      :    -0.000036  p :     0.000433
      px      :     0.000373
      py      :     0.000096

  9 H s       :     0.017384  s :     0.017384
      pz      :     0.001344  p :    -0.000062
      px      :    -0.001251
      py      :    -0.000155

 10 H s       :     0.036221  s :     0.036221
      pz      :    -0.000466  p :     0.002443
      px      :     0.003001
      py      :    -0.000093

 11 H s       :    -0.017533  s :    -0.017533
      pz      :     0.032039  p :     0.057228
      px      :     0.020776
      py      :     0.004413

 12 H s       :     0.011357  s :     0.011357
      pz      :    -0.000093  p :     0.001087
      px      :     0.000394
      py      :     0.000786

 13 O s       :     0.004177  s :     0.004177
      pz      :     0.002969  p :     0.055806
      px      :     0.030869
      py      :     0.021968
      dz2     :    -0.000125  d :    -0.000235
      dxz     :     0.000022
      dyz     :    -0.000155
      dx2y2   :    -0.000116
      dxy     :     0.000138

 14 H s       :     0.004110  s :     0.004110
      pz      :     0.001634  p :     0.000625
      px      :    -0.000227
      py      :    -0.000782



                      *****************************
                      * MAYER POPULATION ANALYSIS *
                      *****************************

  NA   - Mulliken gross atomic population
  ZA   - Total nuclear charge
  QA   - Mulliken gross atomic charge
  VA   - Mayer's total valence
  BVA  - Mayer's bonded valence
  FA   - Mayer's free valence

  ATOM       NA         ZA         QA         VA         BVA        FA
  0 C      4.0510     4.0000    -0.0510     3.9590     3.9590     0.0000
  1 C      4.0731     4.0000    -0.0731     3.9809     3.9809     0.0000
  2 C      4.0572     4.0000    -0.0572     4.0035     4.0001     0.0033
  3 C      4.0729     4.0000    -0.0729     3.9436     3.1841     0.7595
  4 C      3.9079     4.0000     0.0921     4.0428     4.0404     0.0024
  5 H      0.9655     1.0000     0.0345     1.0292     1.0292     0.0000
  6 H      0.9495     1.0000     0.0505     1.0321     1.0321     0.0000
  7 H      0.9573     1.0000     0.0427     1.0285     1.0285    -0.0000
  8 H      0.9746     1.0000     0.0254     1.0303     1.0303     0.0000
  9 H      0.9510     1.0000     0.0490     1.0230     1.0224     0.0006
 10 H      0.9531     1.0000     0.0469     1.0283     1.0254     0.0028
 11 H      0.9685     1.0000     0.0315     1.0462     1.0448     0.0013
 12 H      0.9568     1.0000     0.0432     1.0270     1.0266     0.0003
 13 O      6.3112     6.0000    -0.3112     1.9974     1.9947     0.0027
 14 H      0.8502     1.0000     0.1498     1.1063     1.1062     0.0000

  Mayer bond orders larger than 0.100000
B(  0-C ,  1-C ) :   0.9809 B(  0-C ,  4-C ) :   0.9927 B(  0-C ,  5-H ) :   0.9934 
B(  0-C ,  6-H ) :   0.9949 B(  1-C ,  2-C ) :   0.9767 B(  1-C ,  7-H ) :   1.0049 
B(  1-C ,  8-H ) :   0.9975 B(  2-C ,  3-C ) :   1.0428 B(  2-C ,  9-H ) :   0.9884 
B(  2-C , 10-H ) :   0.9730 B(  3-C ,  4-C ) :   1.0602 B(  3-C , 11-H ) :   1.0188 
B(  4-C , 12-H ) :   1.0030 B(  4-C , 13-O ) :   0.9282 B( 13-O , 14-H ) :   1.0547 


-------
TIMINGS
-------

Total SCF time: 0 days 0 hours 2 min 11 sec 

Total time                  ....     131.007 sec
Sum of individual times     ....     125.232 sec  ( 95.6%)

SCF preparation             ....       0.076 sec  (  0.1%)
Fock matrix formation       ....     124.941 sec  ( 95.4%)
  Startup                   ....       0.003 sec  (  0.0% of F)
  Split-RI-J                ....       4.486 sec  (  3.6% of F)
  Chain of spheres X        ....     114.834 sec  ( 91.9% of F)
  XC integration            ....      11.173 sec  (  8.9% of F)
    Basis function eval.    ....       3.442 sec  ( 30.8% of XC)
    Density eval.           ....       2.278 sec  ( 20.4% of XC)
    XC-Functional eval.     ....       1.874 sec  ( 16.8% of XC)
    XC-Potential eval.      ....       3.360 sec  ( 30.1% of XC)
Diagonalization             ....       0.000 sec  (  0.0%)
Density matrix formation    ....       0.060 sec  (  0.0%)
Total Energy calculation    ....       0.005 sec  (  0.0%)
Population analysis         ....       0.007 sec  (  0.0%)
Orbital Transformation      ....       0.021 sec  (  0.0%)
Orbital Orthonormalization  ....       0.000 sec  (  0.0%)
DIIS solution               ....       0.053 sec  (  0.0%)
SOSCF solution              ....       0.069 sec  (  0.1%)
Finished LeanSCF after 131.0 sec

Maximum memory used throughout the entire LEANSCF-calculation: 22.1 MB


-------------------------------------------------------------------------------
                          DFT DISPERSION CORRECTION                            
                                                                               
                                DFTD4 V3.4.0                                   
-------------------------------------------------------------------------------
The wB97X-3c composite method is recognized
Using three-body term ABC
Active option DFTDOPT                   ...         5   

-------------------------   ----------------
Dispersion correction           -0.014341293
-------------------------   ----------------


-------------------------   --------------------
FINAL SINGLE POINT ENERGY       -49.911879629170
-------------------------   --------------------

------------------------------------------------------------------------------
                         ORCA SCF GRADIENT CALCULATION
------------------------------------------------------------------------------

Nuc. rep. gradient        (SHARK) ... done (  0.0 sec)
HCore & Overlap gradient  (SHARK) ... done (  0.2 sec)
ECP gradient              (SHARK) ... done (  0.5 sec)
Split-RIJ-J gradient      (SHARK) ... done (  1.5 sec)
done ( 44.2 sec)
XC gradient                       ... done (  3.8 sec)
Dispersion correction             ... done (  0.0 sec)

-------------------
DISPERSION GRADIENT
-------------------

   1   C   :   -0.000094165    0.000434826   -0.000054769
   2   C   :   -0.000326513    0.000133735    0.000335141
   3   C   :   -0.000363285   -0.000361224    0.000117979
   4   C   :    0.000043255   -0.000407077   -0.000226488
   5   C   :    0.000227578    0.000077449   -0.000232344
   6   H   :   -0.000067847    0.000158029   -0.000067197
   7   H   :    0.000012063    0.000162586    0.000015479
   8   H   :   -0.000114539    0.000057555    0.000096543
   9   H   :   -0.000057216    0.000036547    0.000162431
  10   H   :   -0.000071632   -0.000126578    0.000065341
  11   H   :   -0.000126830   -0.000101642   -0.000006057
  12   H   :    0.000034137   -0.000162814   -0.000088320
  13   H   :    0.000097806    0.000031638   -0.000112798
  14   O   :    0.000647710    0.000045023    0.000018436
  15   H   :    0.000159479    0.000021946   -0.000023377

Difference to translation invariance:
           :   -0.0000000000   -0.0000000000    0.0000000000

Difference to rotation invariance:
           :   -0.0000000000   -0.0000000000   -0.0000000000

Norm of the Dispersion gradient    ...    0.0013120371
RMS gradient                       ...    0.0001955869
MAX gradient                       ...    0.0006477100

------------------
CARTESIAN GRADIENT
------------------

   1   C   :    0.006755922   -0.003690464   -0.003017588
   2   C   :    0.005775118   -0.004679407   -0.001614331
   3   C   :   -0.010499655    0.001113513   -0.000922357
   4   C   :    0.008563408    0.002605323    0.003853307
   5   C   :    0.009619734    0.002741066   -0.005187308
   6   H   :   -0.003217533    0.000601488   -0.001687085
   7   H   :   -0.000468200    0.002458547    0.006026659
   8   H   :   -0.003972498    0.000532433   -0.001470335
   9   H   :    0.003120141    0.000020756    0.002395902
  10   H   :    0.004674250    0.001429976    0.003095975
  11   H   :    0.002364901    0.001864181   -0.002329293
  12   H   :   -0.001108507    0.000226840    0.000446341
  13   H   :   -0.007279039   -0.000345742   -0.004118986
  14   O   :   -0.011493795    0.000519525   -0.008020546
  15   H   :   -0.002834249   -0.005398036    0.012549645

Difference to translation invariance:
           :   -0.0000000000    0.0000000000    0.0000000000

Difference to rotation invariance:
           :   -0.0000300715   -0.0001101167   -0.0001665465

Norm of the Cartesian gradient     ...    0.0325764473
RMS gradient                       ...    0.0048562100
MAX gradient                       ...    0.0125496453

-------
TIMINGS
-------

Total SCF gradient time     ....       50.152 sec

Densities                   ....       0.000 sec  (  0.0%)
One electron gradient       ....       0.212 sec  (  0.4%)
RI-J Coulomb gradient       ....       1.483 sec  (  3.0%)
COSX gradient               ....      44.167 sec  ( 88.1%)
XC gradient                 ....       3.767 sec  (  7.5%)

Maximum memory used throughout the entire SCFGRAD-calculation: 34.3 MB
------------------------------------------------------------------------------
                         ORCA GEOMETRY RELAXATION STEP
------------------------------------------------------------------------------

Reading the OPT-File                    .... done
Getting information on internals        .... done
Copying old internal coords+grads       .... done
Making the new internal coordinates     .... (2022 redundants) done
Validating the new internal coordinates .... (2022 redundants) done
Calculating the B-matrix                .... done
Calculating the G,G- and P matrices     .... done
Transforming gradient to internals      .... done
Projecting the internal gradient        .... done
Number of atoms                         ....  15
Number of internal coordinates          ....  74
Current Energy                          ....   -49.911879629 Eh
Current gradient norm                   ....     0.032576447 Eh/bohr
Maximum allowed component of the step   ....  0.300
Current trust radius                    ....  0.300
Evaluating the initial hessian          ....  (Almloef) done
Projecting the Hessian                  .... done
Forming the augmented Hessian           .... done
Diagonalizing the augmented Hessian     .... done
Last element of RFO vector              ....  0.992045187
Lowest eigenvalues of augmented Hessian:
 -0.003490202  0.013662676  0.013970833  0.015256606  0.020708049
Length of the computed step             ....  0.126891671
The final length of the internal step   ....  0.126891671
Converting the step to Cartesian space:
 Initial RMS(Int)=    0.0147508571
Transforming coordinates:
 Iter   0:  RMS(Cart)=    0.0375604086 RMS(Int)=    0.0147412738
done
Storing new coordinates                 .... done

                                .--------------------.
          ----------------------|Geometry convergence|-------------------------
          Item                value                   Tolerance       Converged
          ---------------------------------------------------------------------
          RMS gradient        0.0037795908            0.0001000000      NO
          MAX gradient        0.0143368444            0.0003000000      NO
          RMS step            0.0147508571            0.0020000000      NO
          MAX step            0.0512071179            0.0040000000      NO
          -------------------------------------------------------------------------
          ........................................................
          Max(Bonds)      0.0147      Max(Angles)    2.93
          Max(Dihed)        2.29      Max(Improp)    0.00
          ---------------------------------------------------------------------

The optimization has not yet converged - more geometry cycles are needed


    ---------------------------------------------------------------------------
                         Redundant Internal Coordinates
                            (Angstroem and degrees)

        Definition                    Value    dE/dq     Step     New-Value
    ----------------------------------------------------------------------------
     1. B(C   1,C   0)                1.5271 -0.001611  0.0019    1.5290   
     2. B(C   2,C   1)                1.5233 -0.003631  0.0065    1.5298   
     3. B(C   3,C   2)                1.4911  0.000150  0.0002    1.4914   
     4. B(C   4,C   3)                1.4868 -0.005031  0.0053    1.4921   
     5. B(C   4,C   0)                1.5256 -0.003029  0.0033    1.5289   
     6. B(H   5,C   0)                1.0970  0.003498 -0.0052    1.0918   
     7. B(H   6,C   0)                1.0944  0.004147 -0.0061    1.0883   
     8. B(H   7,C   1)                1.0942  0.003322 -0.0049    1.0893   
     9. B(H   8,C   1)                1.0972  0.003750 -0.0056    1.0916   
    10. B(H   9,C   2)                1.0930  0.001171 -0.0017    1.0913   
    11. B(H  10,C   2)                1.0946 -0.000883  0.0013    1.0959   
    12. B(H  11,C   3)                1.0800 -0.000741  0.0010    1.0810   
    13. B(H  12,C   4)                1.0928  0.002763 -0.0041    1.0888   
    14. B(O  13,C   4)                1.4147 -0.010392  0.0107    1.4254   
[...]
      dz2     :     0.060294  d :     0.321333
      dxz     :     0.077054
      dyz     :     0.061578
      dx2y2   :     0.062490
      dxy     :     0.059917

  2 C s       :     0.756364  s :     0.756364
      pz      :     1.014460  p :     3.013928
      px      :     1.012089
      py      :     0.987379
      dz2     :     0.043090  d :     0.329554
      dxz     :     0.075583
      dyz     :     0.080445
      dx2y2   :     0.087810
      dxy     :     0.042627

  3 C s       :     0.842855  s :     0.842855
      pz      :     0.909700  p :     2.865609
      px      :     0.936258
      py      :     1.019651
      dz2     :     0.036548  d :     0.267096
      dxz     :     0.036729
      dyz     :     0.059020
      dx2y2   :     0.069892
      dxy     :     0.064906

  4 C s       :     0.747184  s :     0.747184
      pz      :     0.994319  p :     2.805404
      px      :     0.826132
      py      :     0.984953
      dz2     :     0.113123  d :     0.507145
      dxz     :     0.087271
      dyz     :     0.063903
      dx2y2   :     0.114264
      dxy     :     0.128584

  5 H s       :     0.801043  s :     0.801043
      pz      :     0.055027  p :     0.151863
      px      :     0.053675
      py      :     0.043162

  6 H s       :     0.801717  s :     0.801717
      pz      :     0.045548  p :     0.151467
      px      :     0.045762
      py      :     0.060158

  7 H s       :     0.804859  s :     0.804859
      pz      :     0.044103  p :     0.152680
      px      :     0.062745
      py      :     0.045832

  8 H s       :     0.806658  s :     0.806658
      pz      :     0.060009  p :     0.153523
      px      :     0.052057
      py      :     0.041457

  9 H s       :     0.799459  s :     0.799459
      pz      :     0.054230  p :     0.153509
      px      :     0.042792
      py      :     0.056487

 10 H s       :     0.794240  s :     0.794240
      pz      :     0.050580  p :     0.155447
      px      :     0.063608
      py      :     0.041259

 11 H s       :     0.816484  s :     0.816484
      pz      :     0.055772  p :     0.167730
      px      :     0.048184
      py      :     0.063774

 12 H s       :     0.803527  s :     0.803527
      pz      :     0.068249  p :     0.143233
      px      :     0.031694
      py      :     0.043291

 13 O s       :     1.379941  s :     1.379941
      pz      :     1.454384  p :     4.621242
      px      :     1.474995
      py      :     1.691863
      dz2     :     0.018500  d :     0.075342
      dxz     :     0.013845
      dyz     :     0.016561
      dx2y2   :     0.015549
      dxy     :     0.010887

 14 H s       :     0.646809  s :     0.646809
      pz      :     0.133263  p :     0.335710
      px      :     0.080884
      py      :     0.121563


SPIN
  0 C s       :    -0.000021  s :    -0.000021
      pz      :     0.000743  p :     0.000951
      px      :     0.000260
      py      :    -0.000052
      dz2     :    -0.000062  d :     0.000996
      dxz     :    -0.000078
      dyz     :     0.000642
      dx2y2   :     0.000127
      dxy     :     0.000367

  1 C s       :     0.000489  s :     0.000489
      pz      :     0.000328  p :     0.003722
      px      :     0.000347
      py      :     0.003047
      dz2     :    -0.000444  d :    -0.000266
      dxz     :    -0.000019
      dyz     :    -0.000058
      dx2y2   :     0.000844
      dxy     :    -0.000590

  2 C s       :    -0.003400  s :    -0.003400
      pz      :    -0.006578  p :    -0.021303
      px      :    -0.011868
      py      :    -0.002857
      dz2     :     0.026012  d :     0.063995
      dxz     :     0.011864
      dyz     :     0.002268
      dx2y2   :     0.022779
      dxy     :     0.001072

  3 C s       :     0.022528  s :     0.022528
      pz      :     0.438357  p :     0.730164
      px      :     0.258854
      py      :     0.032953
      dz2     :    -0.000573  d :    -0.005488
      dxz     :    -0.001792
      dyz     :    -0.001039
      dx2y2   :    -0.001339
      dxy     :    -0.000745

  4 C s       :    -0.002449  s :    -0.002449
      pz      :    -0.003806  p :    -0.014872
      px      :     0.002233
      py      :    -0.013298
      dz2     :     0.003804  d :     0.049950
      dxz     :     0.009171
      dyz     :     0.020157
      dx2y2   :     0.012517
      dxy     :     0.004301

  5 H s       :     0.001043  s :     0.001043
      pz      :     0.000007  p :    -0.000069
      px      :    -0.000000
      py      :    -0.000076

  6 H s       :     0.001195  s :     0.001195
      pz      :     0.000019  p :    -0.000088
      px      :    -0.000009
      py      :    -0.000099

  7 H s       :    -0.000172  s :    -0.000172
      pz      :    -0.000000  p :     0.000107
      px      :     0.000000
      py      :     0.000107

  8 H s       :    -0.000271  s :    -0.000271
      pz      :    -0.000032  p :     0.000471
      px      :     0.000390
      py      :     0.000112

  9 H s       :     0.018489  s :     0.018489
      pz      :     0.001590  p :     0.000042
      px      :    -0.001372
      py      :    -0.000176

 10 H s       :     0.038310  s :     0.038310
      pz      :    -0.000574  p :     0.001987
      px      :     0.002656
      py      :    -0.000095

 11 H s       :    -0.017555  s :    -0.017555
      pz      :     0.032668  p :     0.056571
      px      :     0.019319
      py      :     0.004584

 12 H s       :     0.014279  s :     0.014279
      pz      :    -0.000083  p :     0.001034
      px      :     0.000246
      py      :     0.000871

 13 O s       :     0.003721  s :     0.003721
      pz      :     0.002536  p :     0.050894
      px      :     0.030329
      py      :     0.018029
      dz2     :    -0.000139  d :    -0.000379
      dxz     :     0.000045
      dyz     :    -0.000124
      dx2y2   :    -0.000131
      dxy     :    -0.000031

 14 H s       :     0.004747  s :     0.004747
      pz      :     0.001532  p :     0.000648
      px      :    -0.000277
      py      :    -0.000608



                      *****************************
                      * MAYER POPULATION ANALYSIS *
                      *****************************

  NA   - Mulliken gross atomic population
  ZA   - Total nuclear charge
  QA   - Mulliken gross atomic charge
  VA   - Mayer's total valence
  BVA  - Mayer's bonded valence
  FA   - Mayer's free valence

  ATOM       NA         ZA         QA         VA         BVA        FA
  0 C      4.0397     4.0000    -0.0397     3.9582     3.9582     0.0000
  1 C      4.0587     4.0000    -0.0587     3.9810     3.9809     0.0000
  2 C      4.0622     4.0000    -0.0622     4.0057     4.0022     0.0035
  3 C      4.0621     4.0000    -0.0621     3.9384     3.1880     0.7504
  4 C      3.9205     4.0000     0.0795     4.0515     4.0489     0.0026
  5 H      0.9666     1.0000     0.0334     1.0289     1.0289     0.0000
  6 H      0.9522     1.0000     0.0478     1.0342     1.0342     0.0000
  7 H      0.9600     1.0000     0.0400     1.0286     1.0286     0.0000
  8 H      0.9743     1.0000     0.0257     1.0298     1.0298     0.0000
  9 H      0.9527     1.0000     0.0473     1.0240     1.0234     0.0007
 10 H      0.9536     1.0000     0.0464     1.0268     1.0237     0.0031
 11 H      0.9671     1.0000     0.0329     1.0449     1.0436     0.0013
 12 H      0.9583     1.0000     0.0417     1.0268     1.0263     0.0005
 13 O      6.3101     6.0000    -0.3101     2.0055     2.0032     0.0023
 14 H      0.8617     1.0000     0.1383     1.1159     1.1159     0.0000

  Mayer bond orders larger than 0.100000
B(  0-C ,  1-C ) :   0.9838 B(  0-C ,  4-C ) :   0.9891 B(  0-C ,  5-H ) :   0.9920 
B(  0-C ,  6-H ) :   0.9939 B(  1-C ,  2-C ) :   0.9781 B(  1-C ,  7-H ) :   1.0038 
B(  1-C ,  8-H ) :   0.9960 B(  2-C ,  3-C ) :   1.0473 B(  2-C ,  9-H ) :   0.9868 
B(  2-C , 10-H ) :   0.9701 B(  3-C ,  4-C ) :   1.0642 B(  3-C , 11-H ) :   1.0170 
B(  4-C , 12-H ) :   1.0032 B(  4-C , 13-O ) :   0.9318 B( 13-O , 14-H ) :   1.0670 


-------
TIMINGS
-------

Total SCF time: 0 days 0 hours 1 min 12 sec 

Total time                  ....      72.258 sec
Sum of individual times     ....      66.136 sec  ( 91.5%)

SCF preparation             ....       0.081 sec  (  0.1%)
Fock matrix formation       ....      65.955 sec  ( 91.3%)
  Startup                   ....       0.002 sec  (  0.0% of F)
  Split-RI-J                ....       1.892 sec  (  2.9% of F)
  Chain of spheres X        ....      65.440 sec  ( 99.2% of F)
  XC integration            ....       4.562 sec  (  6.9% of F)
    Basis function eval.    ....       1.517 sec  ( 33.3% of XC)
    Density eval.           ....       0.961 sec  ( 21.1% of XC)
    XC-Functional eval.     ....       0.805 sec  ( 17.6% of XC)
    XC-Potential eval.      ....       1.189 sec  ( 26.1% of XC)
Diagonalization             ....       0.000 sec  (  0.0%)
Density matrix formation    ....       0.021 sec  (  0.0%)
Total Energy calculation    ....       0.004 sec  (  0.0%)
Population analysis         ....       0.021 sec  (  0.0%)
Orbital Transformation      ....       0.010 sec  (  0.0%)
Orbital Orthonormalization  ....       0.000 sec  (  0.0%)
DIIS solution               ....       0.008 sec  (  0.0%)
SOSCF solution              ....       0.036 sec  (  0.0%)
Finished LeanSCF after  72.3 sec

Maximum memory used throughout the entire LEANSCF-calculation: 22.5 MB


-------------------------------------------------------------------------------
                          DFT DISPERSION CORRECTION                            
                                                                               
                                DFTD4 V3.4.0                                   
-------------------------------------------------------------------------------
The wB97X-3c composite method is recognized
Using three-body term ABC
Active option DFTDOPT                   ...         5   

-------------------------   ----------------
Dispersion correction           -0.014195303
-------------------------   ----------------


-------------------------   --------------------
FINAL SINGLE POINT ENERGY       -49.914622047048
-------------------------   --------------------

                                *** OPTIMIZATION RUN DONE ***


------------------------------------------------------------------------------
                              ORCA PROPERTY CALCULATIONS
------------------------------------------------------------------------------

GBWName                                 ... opt.gbw
Number of atoms                         ...     15
Number of basis functions               ...    123
Max core memory                         ...   4096 MB

Electric properties:
Dipole moment                           ... YES
Quadrupole moment                       ...  NO
Static polarizability (Dipole/Dipole)   ...  NO
Static polarizability (Dipole/Quad.)    ...  NO
Static polarizability (Quad./Quad.)     ...  NO
Static polarizability (Velocity)        ...  NO
Static hyperpolarizability              ...  NO

Atomic electric properties:
Dipole moment                           ...  NO
Quadrupole moment                       ...  NO
Static polarizability                   ...  NO

Choice of electric origin               ... Center of mass
Position of electric origin             ...     0.546272     0.019110    -0.169006

General magnetic properties:
Magnetizability                         ...  NO

EPR properties:
g-Tensor (aka g-matrix)                 ...  NO
Zero-Field splitting spin-orbit         ...  NO
Zero-field splitting spin-spin          ...  NO
Hyperfine couplings                     ...  NO (   0 nuclei)
Quadrupole couplings                    ...  NO (   0 nuclei)
Contact density                         ...  NO (   0 nuclei)

NMR properties:
Chemical shifts                         ...  NO (   0 nuclei)
Spin-rotation constants                 ...  NO (   0 nuclei)
Spin-spin couplings                     ...  NO (   0 nuclei,    0 pairs)

Choice of magnetic origin               ... GIAO
Position of magnetic origin             ...     0.000000     0.000000     0.000000

Properties with geometric perturbations:
SCF Hessian                             ...  NO
IR spectrum                             ...  NO
VCD spectrum                            ...  NO
X-ray spectroscopy properties:
SCF XES/XAS/RIXS spectra                ...  NO

SCF SOC stabilization energy            ...  NO
Diagonal Born-Oppenheimer correction    ...  NO

-------------
DIPOLE MOMENT
-------------

Method             : SCF
Type of density    : Electron Density
Multiplicity       :   2
Irrep              :   0
Energy             :   -49.9004267438308773 Eh
Basis              : AO
                                X                 Y                 Z
Electronic contribution:      1.970510694      -0.594897580      -1.400382843
Nuclear contribution   :     -2.682106397       0.287006534       1.678110802
                        -----------------------------------------
Total Dipole Moment    :     -0.711595703      -0.307891046       0.277727959
                        -----------------------------------------
Magnitude (a.u.)       :      0.823588586
Magnitude (Debye)      :      2.093395822



--------------------
Rotational spectrum 
--------------------
 
Rotational constants in cm-1:             0.196618             0.113016             0.089315 
Rotational constants in MHz :          5894.471582          3388.127640          2677.610757 

Dipole components along the rotational axes: 
x,y,z [a.u.] :    -0.812178    -0.111739    -0.078614 
x,y,z [Debye]:    -2.064391    -0.284018    -0.199821 

 

Dipole moment calculation done in   0.0 sec 

Maximum memory used throughout the entire PROP-calculation: 11.8 MB

--------------------------------
SUGGESTED CITATIONS FOR THIS RUN
--------------------------------

Below you find a list of papers that are relevant to this ORCA run
We neither can nor want to force you to cite these papers, but we appreciate if you do
You receive ORCA, which is the product of decades of hard work by many enthusiastic individuals, for free
The only thing we kindly ask in return is that you cite our papers,
We deeply appreciate it, if you show your appreciation for ORCA by not just citing the generic ORCA reference.

Please note that relegating all ORCA citations to the supporting information does *not* help us.
SI sections are not indexed - citations you put there will not count into any citation statistics
But we need these citations in order to attract the funding resources that allow us to do what we are doing

Therefore, if you are a happy ORCA user, please consider citing a few of the papers listed below in the main body of your paper

In addition to the list printed below, the program has created the file opt.bibtex that contains the list in bibtex format
You can import this file easily into all common literature databanks and citation aid programs


List of essential papers. We consider these as the minimum necessary citations

  1. Mueller, M.; Hansen, A.; Grimme, S.
     wB97X-3c: A composite range-separated hybrid DFT method with a molecule-optimized polarized valence double-zeta basis set
     J. Chem. Phys. 2023 158 , 014103
     doi.org/10.1063/5.0133026
  2. Neese, F.
     Software update: the ORCA program system, version 6.0
     WIRES Comput. Molec. Sci. 2025 15(1), e70019
     doi.org/10.1002/wcms.7019

List of papers to cite with high priority. The work reported in these papers was absolutely
necessary for this run to complete.
Our perspective: the developers of density functionals and basis sets usually get cited in chemistry papers
Good! But without the algorithms to do something with them, the functionals or basis sets would not do anything.
Hence, in our opinion, the algorithm design and method developments papers are equally worthy of getting cited

  1. Neese, F.
     An improvement of the resolution of the identity approximation for the formation of the Coulomb matrix
     J. Comp. Chem. 2003 24(14), 1740-1747
     doi.org/10.1002/jcc.10318
  2. Neese, F.; Wennmohs, F.; Hansen, A.; Becker, U.
     Efficient, approximate and parallel Hartree-Fock and hybrid DFT calculations. A 'chain-of-spheres' algorithm for the Hartree-Fock exchange
     Chem. Phys. 2009 356(1-3), 98-109
     doi.org/10.1016/j.chemphys.2008.10.036
  3. Caldeweyher, E.; Bannwarth, C.; Grimme, S.
     Extension of the D3 dispersion coefficient model
     J. Chem. Phys. 2017 147 , 034112
     doi.org/10.1063/1.4993215
  4. Caldeweyher, E.; Ehlert, S.; Hansen, A.; Neugebauer, H.; Spicher, S.; Bannwarth, C.; Grimme, S.
     A generally applicable atomic-charge dependent London dispersion correction
     J. Chem. Phys. 2019 150 , 154122
     doi.org/10.1063/1.5090222
  5. Caldeweyher, E.; Mewes, J.; Ehlert, S.; Grimme, S.
     Extension and evaluation of the D4 London-dispersion model for periodic systems
     Phys. Chem. Chem. Phys. 2020 22(16), 8499-8512
     doi.org/10.1039/D0CP00502A
  6. Helmich-Paris, B.; de Souza, B.; Neese, F.; Izsák, R.
     An improved chain of spheres for exchange algorithm
     J. Chem. Phys. 2021 155(10), 104109
     doi.org/10.1063/5.0058766
  7. Neese, F.
     The SHARK Integral Generation and Digestion System
     J. Comp. Chem. 2022 44(3), 381
     doi.org/10.1002/jcc.26942
  8. Wittmann, L.; Gordiy, I.; Friede, M.; Helmich-Paris, B.; Grimme, S.; Hansen, A.; Bursch, M.
     Extension of the D3 and D4 London Dispersion Corrections to the full Actinides Series
     Phys. Chem. Chem. Phys. 2024 26(32), 21379-21394
     doi.org/10.1039/D4CP01514B

List of suggested additional citations. These are papers that are important in the 'surrounding' of 
of this run, or papers that preceded the highly important papers. If you like your results we are grateful for a citation.

  1. Izsak, R.; Neese, F.
     An overlap fitted chain of spheres exchange method
     J. Chem. Phys. 2011 135 , 144105
     doi.org/10.1063/1.3646921
  2. Izsak, R.; Hansen, A.; Neese, F.
     The resolution of identity and chain of spheres approximations for the LPNO-CCSD singles Fock term
     Molec. Phys. 2012 110 , 2413-2417
     doi.org/10.1080/00268976.2012.687466
  3. Neese, F.
     The ORCA program system
     WIRES Comput. Molec. Sci. 2012 2(1), 73-78
     doi.org/10.1002/wcms.81
  4. Izsak, R.; Neese, F.; Klopper, W.
     Robust fitting techniques in the chain of spheres approximation to the Fock exchange: The role of the complementary space
     J. Chem. Phys. 2013 139 , 
     doi.org/10.1063/1.4819264
  5. Neese, F.
     Software update: the ORCA program system, version 4.0
     WIRES Comput. Molec. Sci. 2018 8(1), 1-6
     doi.org/10.1002/wcms.1327
  6. Neese, F.; Wennmohs, F.; Becker, U.; Riplinger, C.
     The ORCA quantum chemistry program package
     J. Chem. Phys. 2020 152(22), 224108
     doi.org/10.1063/5.0004608
  7. Neese, F.
     Software update: The ORCA program system—Version 5.0
     WIRES Comput. Molec. Sci. 2022 12(1), e1606
     doi.org/10.1002/wcms.1606

List of optional additional citations

  1. Neese, F.
     Approximate second-order SCF convergence for spin unrestricted wavefunctions
     Chem. Phys. Lett. 2000 325(1-3), 93-98
     doi.org/10.1016/s0009-2614(00)00662-x

Timings for individual modules:

Sum of individual times          ...     1485.190 sec (=  24.753 min)
Startup calculation              ...       13.588 sec (=   0.226 min)   0.9 %
SCF iterations                   ...      971.812 sec (=  16.197 min)  65.4 %
Property calculations            ...        0.076 sec (=   0.001 min)   0.0 %
SCF Gradient evaluation          ...      499.660 sec (=   8.328 min)  33.6 %
Geometry relaxation              ...        0.054 sec (=   0.001 min)   0.0 %
                             ****ORCA TERMINATED NORMALLY****
TOTAL RUN TIME: 0 days 0 hours 24 minutes 46 seconds 26 msec
