
                                 *****************
                                 * O   R   C   A *
                                 *****************

                                            #,                                       
                                            ###                                      
                                            ####                                     
                                            #####                                    
                                            ######                                   
                                           ########,                                 
                                     ,,################,,,,,                         
                               ,,#################################,,                 
                          ,,##########################################,,             
                       ,#########################################, ''#####,          
                    ,#############################################,,   '####,        
                  ,##################################################,,,,####,       
                ,###########''''           ''''###############################       
              ,#####''   ,,,,##########,,,,          '''####'''          '####       
            ,##' ,,,,###########################,,,                        '##       
           ' ,,###''''                  '''############,,,                           
         ,,##''                                '''############,,,,        ,,,,,,###''
      ,#''                                            '''#######################'''  
     '                                                          ''''####''''         
             ,#######,   #######,   ,#######,      ##                                
            ,#'     '#,  ##    ##  ,#'     '#,    #''#        ,####,    ,#,          
            ##       ##  ##   ,#'  ##            #'  '#       #'       ,# #          
            ##       ##  #######   ##           ,######,      #####,      #          
            '#,     ,#'  ##    ##  '#,     ,#' ,#      #,     #,   #      #          
             '#######'   ##     ##  '#######'  #'      '#     '####' #    #          



                #########################################################
                #                        -***-                          #
                #          Department of theory and spectroscopy        #
                #                                                       #
                #                      Frank Neese                      #
                #                                                       #
                #     Directorship, Architecture, Infrastructure        #
                #                    SHARK, DRIVERS                     #
                #        Core code/Algorithms in most modules           #
                #                                                       #
                #        Max Planck Institute fuer Kohlenforschung      #
                #                Kaiser Wilhelm Platz 1                 #
                #                 D-45470 Muelheim/Ruhr                 #
                #                      Germany                          #
                #                                                       #
                #                  All rights reserved                  #
                #                        -***-                          #
                #########################################################


                         Program Version 6.1.0  -  RELEASE   -
                                (GIT: $679e74b$)
                          ($2025-06-10 18:02:51 +0200$)


 With contributions from (in alphabetic order):
[Max-Planck-Institut fuer Kohlenforschung]                               
  Daniel Aravena         : Magnetic Suceptibility                        
  Michael Atanasov       : Ab Initio Ligand Field Theory (pilot matlab implementation)
  Alexander A. Auer      : GIAO ZORA, VPT2 properties, NMR spectrum      
  Ute Becker             : All parallelization in ORCA, NUMFREQ, NUMCALC 
  Giovanni Bistoni       : ED, misc. LED, open-shell LED, HFLD           
  Dmytro Bykov           : pre 5.0 version of the SCF Hessian            
  Marcos Casanova-Páez   : Triplet and SCS-CIS(D). UHF-(DLPNO)-IP/EA/STEOM-CCSD. UHF-CVS-IP/STEOM-CCSD   
  Vijay G. Chilkuri      : MRCI spin determinant printing, contributions to CSF-ICE 
  Pauline Colinet        : FMM embedding                                 
  Dipayan Datta          : RHF DLPNO-CCSD density                        
  Achintya Kumar Dutta   : EOM-CC, STEOM-CC                              
  Nicolas Foglia         : Exact transition moments, OPA infrastructure, MCD improvements    
  Dmitry Ganyushin       : Spin-Orbit,Spin-Spin,Magnetic field MRCI      
  Miquel Garcia-Rates    : C-PCM and meta-GGA Hessian, CCSD/C-PCM, Gaussian charge scheme 
  Tiago L. C. Gouveia    : GS-ROHF, GS-ROCIS                             
  Yang Guo               : DLPNO-NEVPT2, F12-NEVPT2, CIM, IAO-localization        
  Andreas Hansen         : Spin unrestricted coupled pair/coupled cluster methods 
  Ingolf Harden          : AUTO-CI MPn and infrastructure                
  Benjamin Helmich-Paris : MC-RPA, TRAH-(SCF,CASSCF), AVAS, COSX integrals, SCF dyn. polar., MC-PDFT, srDFT 
  Lee Huntington         : MR-EOM, pCC                                   
  Robert Izsak           : Overlap fitted RIJCOSX, COSX-SCS-MP3, EOM     
  Riya Kayal             : Wick's Theorem for AUTO-CI, AUTO-CI UHF-CCSDT 
  Emily Kempfer          : AUTO-CI RHF CISDT and CCSDT, approximate NEVPT4
  Christian Kollmar      : KDIIS, OOCD, Brueckner-CCSD(T), CCSD density, CASPT2, CASPT2-K, improved NEVPT2 
  Axel Koslowski         : Symmetry handling                             
  Simone Kossmann        : meta-GGA functionals, TD-DFT gradient, OOMP2, (MP2 Hessian; deprecated post 5.0) 
  Lucas Lang             : DCDCAS, Hyperfine gauge corrections, ICE-SOC+SSC
  Marvin Lechner         : AUTO-CI (C++ implementation), FIC-MRCC        
  Spencer Leger          : CASSCF response                               
  Dagmar Lenk            : GEPOL surface, SMD, ORCA-2-JSON               
  Dimitrios Liakos       : Extrapolation schemes; Compound Job, Property file
  Dimitrios Manganas     : Further ROCIS development; embedding schemes. LFT, Crystal Embedding 
  Dimitrios Pantazis     : SARC Basis sets                               
  Anastasios Papadopoulos: AUTO-CI, single reference methods and gradients 
  Taras Petrenko         : pre 6.0 DFT Hessian and TD-DFT gradient,  ECA, NRVS 
  Petra Pikulova         : Analytic Raman intensities                    
  Peter Pinski           : DLPNO-MP2, DLPNO-MP2 Gradient                 
  Shashank Vittal Rao    : ES-AILFT, MagRelax                            
  Christoph Reimann      : Effective Core Potentials                     
  Marius Retegan         : Local ZFS, SOC                                
  Christoph Riplinger    : Optimizer, TS searches, QM/MM, DLPNO-CCSD(T), (RO)-DLPNO pert. Triples 
  Michael Roemelt        : Original ROCIS implementation, recursive CI coupling coefficients
  Masaaki Saitow         : Open-shell DLPNO-CCSD energy and density      
  Barbara Sandhoefer     : DKH picture change effects                    
  Yorick L. A. Schmerwitz: GMF and freeze-and-release deltaSCF, NEB S-IDPP initial path                    
  Kantharuban Sivalingam : CASSCF convergence/infrastructure, NEVPT2, NEVPT3, NEVPT4(SD), FIC-MRCI and CEPA variants
  Bernardo de Souza      : ESD, SOC TD-DFT                               
  Georgi L. Stoychev     : AutoAux, RI-MP2 NMR, DLPNO-MP2 response, X2C  
  Van Anh Tran           : RI-MP2 g-tensors                              
  Willem Van den Heuvel  : Paramagnetic NMR                              
  Zikuan Wang            : NOTCH, Electric field optimization            
  Frank Wennmohs         : Technical directorship and infrastructure     
  Hang Xu                : AUTO-CI-Response properties                   
                                                                         
[FACCTs GmbH]                                                            
  Markus Bursch, Nicolas Foglia, Miquel Garcia-Rates, Ingolf Harden, Hagen Neugebauer, Anastasios Papadopoulos, 
  Christoph Riplinger, Bernardo de Souza, Georgi L. Stoychev                                                    
                                                                 
  APM, various basis sets, CI-OPT, improved COSX, DLPNO-Multilevel,           
  DOCKER, DRACO, updates on ESD, Fragmentator, GOAT, IRC, LR-CPCM, L-BFGS, MBIS, meta-GGA TD-DFT gradient, ML-optimized integration grids, 
  MM, NACMEs, nearIR, NEB, NEB-TS, NL-DFT gradient (VV10), 2- and 3-layer-ONIOM, interface openCOSMO-RS, QMMM,   
  Crystal-QMMM, RESP, rigid body optimization, SF, symmetry and pop. for TD-DFT, various functionals, SOLVATOR                                   
                                                                         
[Other institutions]                                                     
  V. Asgeirsson          : NEB                                           
  Christoph Bannwarth    : sTDA-DFT, sTD-DFT, PBEh-3c, B97-3c, D3        
  Giovanni Bistoni       : ETS/NOCV, ADLD/ADEX, COVALED                  
  Martin Brehm           : Molecular dynamics                            
  Ronald Cardenas        : ETS/NOCV                                      
  Martina Colucci        : COVALED                                       
  Sebastian Ehlert       : rSCAN, r2SCAN, r2SCAN-3c, D4, dhf basis sets  
  Marvin Friede          : D4 for Fr, Ra, Ac-Lr                          
  Lars Goerigk           : TD-DFT with DH, B97 family of functionals     
  Stefan Grimme          : VdW corrections, initial TS optimization, DFT functionals, gCP, sTDA/sTD-DF 
  Waldemar Hujo          : DFT-NL                                        
  H. Jonsson             : NEB                                           
  Holger Kruse           : gCP                                           
  Marcel Mueller         : wB97X-3c, vDZP basis set                      
  Hagen Neugebauer       : wr2SCAN, Native XTB                           
  Gianluca Regni         : ADLD/ADEX                                     
  Tobias Risthaus        : pre 6.0 range-separated hybrid DFT and stability analysis
  Lukas Wittmann         : regularized MP2, r2SCAN double-hybrids, wr2SCAN        
                                                                         
We gratefully acknowledge several colleagues who have allowed us to      
interface, adapt or use parts of their codes:                            
  Ed Valeev, F. Pavosevic, A. Kumar             : LibInt (2-el integral package), F12 methods 
  Garnet Chan, S. Sharma, J. Yang, R. Olivares  : DMRG                   
  Ulf Ekstrom                                   : XCFun DFT Library      
  Mihaly Kallay                                 : mrcc  (arbitrary order and MRCC methods)
  Frank Weinhold                                : gennbo (NPA and NBO analysis)           
  Simon Mueller                                 : openCOSMO-RS                            
  Christopher J. Cramer and Donald G. Truhlar   : smd solvation model                     
  S Lehtola, MJT Oliveira, MAL Marques          : LibXC Library                           
  Liviu Ungur et al                             : ANISO software                          


 Your calculation uses the libint2 library for the computation of 2-el integrals
 For citations please refer to: http://libint.valeyev.net

 Your ORCA version has been built with support for libXC version: 7.0.0
 For citations please refer to: https://libxc.gitlab.io

 This ORCA versions uses:
   CBLAS   interface :  Fast vector & matrix operations
   LAPACKE interface :  Fast linear algebra routines
   SCALAPACK package :  Parallel linear algebra routines
   Shared memory     :  Shared parallel matrices
   BLAS/LAPACK       :  OpenBLAS 0.3.29  USE64BITINT DYNAMIC_ARCH NO_AFFINITY SkylakeX SINGLE_THREADED
        Core in use  :  SkylakeX
   Copyright (c) 2011-2014, The OpenBLAS Project


  ***********************************
  * Starting time: Tue Aug 19 15:39:44 2025
  * Host name:     csed-0008
  * Process ID:    1545890
  * Working dir.:  /gpfs/fs1/home/copan/proj/cyclopentene-oh-addition-project/calc/cyC5y1o2/run-revdsd
  ***********************************

NOTE: MaxCore=10000 MB was set to SCF,MP2,MDCI,CIPSI,MRCI,RASCI and CIS
      => If you want to overwrite this, your respective input block should be placed after the MaxCore statement


***************************************
The coordinates will be read from file: guess.xyz
***************************************


Your calculation utilizes the atom-pairwise dispersion correction
based on EEQ partial charges (D4)


Warning: RI is on but no J-basis has been assigned. Assigning Def2/J (nothing to worry about!)
================================================================================

----- Orbital basis set information -----
Your calculation utilizes the basis: def2-TZVPP
   F. Weigend and R. Ahlrichs, Phys. Chem. Chem. Phys. 7, 3297 (2005).

----- AuxJ basis set information -----
Your calculation utilizes the auxiliary basis: def2/J
   H-Rn: F. Weigend, Phys. Chem. Chem. Phys. 8, 1057 (2006).
   Fr-Lr: K. Eichkorn, F. Weigend, O. Treutler, R. Ahlrichs; Theor. Chem. Acc. 97, 119 (1997).

----- AuxC basis set information -----
Your calculation utilizes the auxiliary basis: def2-TZVPP/C
  H-La, Hf-Rn : A. Hellweg, C. Hattig, S. Hofener and W. Klopper, Theor. Chem. Acc. 117, 587 (2007).
        Ce-Lu : J. Chmela and M. E. Harding, Mol. Phys. (2018).

================================================================================
                                        WARNINGS
                       Please study these warnings very carefully!
================================================================================


WARNING: your system is open-shell and RHF/RKS was chosen
  ===> : WILL SWITCH to UHF/UKS


WARNING: The frozen-core approximation for MP2-gradient calculations is turned on by default.

WARNING: Geometry Optimization
  ===> : Switching off AutoStart
         For restart on a previous wavefunction, please use MOREAD

WARNING: The frozen-core approximation is turned on by default for 
         the MP2 part of double-hybrid DFT.

================================================================================
                                       INPUT FILE
================================================================================
NAME = opt.inp
|  1> % MaxCore 10000
|  2> ! PAL8
|  3> ! REVDSD-PBEP86-D4/2021 def2-TZVPP def2-TZVPP/c
|  4> ! OPT
|  5> * xyzfile 0 2 guess.xyz
|  6> 
|  7>                          ****END OF INPUT****
================================================================================

                       *****************************
                       * Geometry Optimization Run *
                       *****************************

Geometry optimization settings:
Update method            Update   .... BFGS
Choice of coordinates    CoordSys .... (2022) Redundant Internals
Initial Hessian          InHess   .... Almloef's Model
Max. no of cycles        MaxIter  .... 50

Convergence Tolerances:
Energy Change            TolE     ....  5.0000e-06 Eh
Max. Gradient            TolMAXG  ....  3.0000e-04 Eh/bohr
RMS Gradient             TolRMSG  ....  1.0000e-04 Eh/bohr
Max. Displacement        TolMAXD  ....  4.0000e-03 bohr
RMS Displacement         TolRMSD  ....  2.0000e-03 bohr
Strict Convergence                .... False

------------------------------------------------------------------------------
                        ORCA OPTIMIZATION COORDINATE SETUP
------------------------------------------------------------------------------

The optimization will be done in redundant internal coordinates (2022)
Making redundant internal coordinates   ...  (2022 redundants) done
Evaluating the initial hessian          ...  (Almloef) done
Evaluating the coordinates              ...  done
Calculating the B-matrix                .... done
Calculating the G-matrix                .... done
The number of degrees of freedom        ....   74

    -----------------------------------------------------------------
                    Redundant Internal Coordinates


    -----------------------------------------------------------------
         Definition                    Initial Value    Approx d2E/dq
    -----------------------------------------------------------------
      1. B(C   1,C   0)                  1.5250         0.380561   
      2. B(C   2,C   1)                  1.5303         0.373122   
      3. B(C   3,C   2)                  1.4866         0.438208   
      4. B(C   4,C   3)                  1.4887         0.434848   
      5. B(C   4,C   0)                  1.5282         0.376100   
      6. B(H   5,C   0)                  1.0919         0.357600   
      7. B(H   6,C   0)                  1.0882         0.362447   
      8. B(H   7,C   1)                  1.0887         0.361779   
      9. B(H   8,C   1)                  1.0919         0.357614   
     10. B(H   9,C   2)                  1.0918         0.357711   
     11. B(H  10,C   2)                  1.0979         0.349850   
     12. B(H  11,C   3)                  1.0809         0.372311   
     13. B(H  12,C   4)                  1.0902         0.359781   
     14. B(O  13,C   4)                  1.4289         0.485019   
     15. B(H  14,O  13)                  0.9584         0.523114   
     16. A(C   1,C   0,H   6)          114.0932         0.325655   
     17. A(C   4,C   0,H   5)          108.8529         0.324307   
     18. A(C   1,C   0,C   4)          104.7438         0.364925   
     19. A(C   1,C   0,H   5)          109.6248         0.324935   
     20. A(H   5,C   0,H   6)          107.9816         0.290818   
     21. A(C   4,C   0,H   6)          111.4359         0.325025   
     22. A(C   2,C   1,H   8)          109.8258         0.323886   
     23. A(C   2,C   1,H   7)          113.1044         0.324502   
     24. A(C   0,C   1,H   7)          113.0409         0.325557   
     25. A(H   7,C   1,H   8)          107.0585         0.290736   
     26. A(C   0,C   1,C   2)          103.6451         0.364429   
     27. A(C   0,C   1,H   8)          110.1700         0.324937   
     28. A(C   1,C   2,C   3)          103.5501         0.373364   
     29. A(H   9,C   2,H  10)          105.8976         0.289223   
     30. A(C   1,C   2,H  10)          110.3733         0.322722   
     31. A(C   3,C   2,H   9)          113.2157         0.332606   
     32. A(C   1,C   2,H   9)          113.4184         0.323900   
     33. A(C   3,C   2,H  10)          110.4756         0.331384   
     34. A(C   4,C   3,H  11)          123.3917         0.334394   
     35. A(C   2,C   3,H  11)          124.8828         0.334822   
     36. A(C   2,C   3,C   4)          111.7253         0.383390   
     37. A(C   3,C   4,O  13)          112.2451         0.387752   
     38. A(C   0,C   4,O  13)          112.8879         0.378097   
     39. A(C   3,C   4,H  12)          112.9140         0.332500   
     40. A(C   0,C   4,H  12)          111.8140         0.324631   
     41. A(H  12,C   4,O  13)          104.1635         0.336539   
     42. A(C   0,C   4,C   3)          103.1054         0.373380   
     43. A(C   4,O  13,H  14)          108.8259         0.355285   
     44. D(C   2,C   1,C   0,H   6)   -159.2028         0.011541   
     45. D(C   2,C   1,C   0,H   5)     79.5670         0.011541   
     46. D(C   2,C   1,C   0,C   4)    -37.0859         0.011541   
     47. D(H   7,C   1,C   0,H   5)    -43.2571         0.011541   
     48. D(H   7,C   1,C   0,C   4)   -159.9100         0.011541   
     49. D(H   7,C   1,C   0,H   6)     77.9732         0.011541   
     50. D(H   9,C   2,C   1,C   0)    153.0444         0.011118   
     51. D(H   9,C   2,C   1,H   8)     35.3535         0.011118   
     52. D(H   9,C   2,C   1,H   7)    -84.1736         0.011118   
     53. D(C   3,C   2,C   1,C   0)     29.9334         0.011118   
     54. D(C   3,C   2,C   1,H   8)    -87.7574         0.011118   
     55. D(C   3,C   2,C   1,H   7)    152.7154         0.011118   
     56. D(C   4,C   3,C   2,H  10)    105.8825         0.014171   
     57. D(C   4,C   3,C   2,H   9)   -135.5421         0.014171   
     58. D(C   4,C   3,C   2,C   1)    -12.2975         0.014171   
     59. D(H  11,C   3,C   2,H   9)     44.5723         0.014171   
     60. D(H  11,C   3,C   2,C   1)    167.8169         0.014171   
     61. D(O  13,C   4,C   3,C   2)    111.4438         0.013959   
     62. D(H  12,C   4,C   3,C   2)   -131.1753         0.013959   
     63. D(C   0,C   4,C   3,H  11)    169.5512         0.013959   
     64. D(C   0,C   4,C   3,C   2)    -10.3364         0.013959   
     65. D(H  12,C   4,C   0,H   6)    -85.5410         0.011286   
     66. D(H  12,C   4,C   0,H   5)     33.4399         0.011286   
     67. D(H  12,C   4,C   0,C   1)    150.6234         0.011286   
     68. D(C   3,C   4,C   0,H   6)    152.8732         0.011286   
     69. D(H  12,C   4,C   3,H  11)     48.7123         0.013959   
     70. D(C   3,C   4,C   0,H   5)    -88.1460         0.011286   
     71. D(C   3,C   4,C   0,C   1)     29.0376         0.011286   
     72. D(H  14,O  13,C   4,H  12)   -160.0037         0.018566   
     73. D(H  14,O  13,C   4,C   3)    -37.5198         0.018566   
     74. D(H  14,O  13,C   4,C   0)     78.4937         0.018566   
    -----------------------------------------------------------------

Number of atoms                         .... 15
Number of degrees of freedom            .... 74


         *************************************************************
         *                GEOMETRY OPTIMIZATION CYCLE   1            *
         *************************************************************
---------------------------------
CARTESIAN COORDINATES (ANGSTROEM)
---------------------------------
  C     -0.117157    1.192633   -0.171433
  C     -0.821218    0.364622    0.898234
  C     -0.936311   -1.022914    0.263089
  C      0.248836   -1.095945   -0.631314
  C      0.893187    0.235129   -0.802055
  H     -0.837908    1.496890   -0.933130
  H      0.368375    2.089228    0.208862
  H     -1.783037    0.780092    1.194257
  H     -0.205263    0.310034    1.798142
  H     -0.974381   -1.832975    0.994120
  H     -1.863088   -1.100524   -0.320314
  H      0.609168   -1.996815   -1.107748
  H      1.087970    0.481662   -1.846041
  O      2.179259    0.297047   -0.182346
  H      2.151571   -0.198164    0.637677

----------------------------
CARTESIAN COORDINATES (A.U.)
----------------------------
  NO LB      ZA    FRAG     MASS         X           Y           Z
   0 C     6.0000    0    12.011   -0.221395    2.253749   -0.323961
   1 C     6.0000    0    12.011   -1.551878    0.689035    1.697416
   2 C     6.0000    0    12.011   -1.769372   -1.933027    0.497167
   3 C     6.0000    0    12.011    0.470232   -2.071037   -1.193011
   4 C     6.0000    0    12.011    1.687879    0.444330   -1.515664
   5 H     1.0000    0     1.008   -1.583417    2.828712   -1.763361
   6 H     1.0000    0     1.008    0.696128    3.948068    0.394692
   7 H     1.0000    0     1.008   -3.369452    1.474161    2.256818
   8 H     1.0000    0     1.008   -0.387892    0.585880    3.397995
   9 H     1.0000    0     1.008   -1.841313   -3.463821    1.878614
  10 H     1.0000    0     1.008   -3.520727   -2.079688   -0.605305
  11 H     1.0000    0     1.008    1.151161   -3.773433   -2.093341
  12 H     1.0000    0     1.008    2.055965    0.910208   -3.488512
  13 O     8.0000    0    15.999    4.118202    0.561338   -0.344584
  14 H     1.0000    0     1.008    4.065880   -0.374476    1.205035

--------------------------------
INTERNAL COORDINATES (ANGSTROEM)
--------------------------------
 C      0   0   0     0.000000000000     0.00000000     0.00000000
 C      1   0   0     1.524956403019     0.00000000     0.00000000
 C      2   1   0     1.530329889866   103.64511971     0.00000000
 C      3   2   1     1.486561797775   103.55014469    29.93336722
 C      4   3   2     1.488657114584   111.72531955   347.70247964
 H      1   2   3     1.091896214862   109.62482123    79.56697552
 H      1   2   3     1.088231885320   114.09316804   200.79721378
 H      2   1   3     1.088733622347   113.04091893   237.17595950
 H      2   1   3     1.091885706231   110.17000737   117.45093364
 H      3   2   1     1.091812140626   113.41839192   153.04435618
 H      3   2   1     1.097860721851   110.37325745   271.68226981
 H      4   3   2     1.080922683697   124.88282967   167.81694342
 H      5   4   3     1.090241235211   112.91400597   228.82474858
 O      5   4   3     1.428934096339   112.24507757   111.44380913
 H     14   5   4     0.958351671860   108.82593727   322.48024802

---------------------------
INTERNAL COORDINATES (A.U.)
---------------------------
 C      0   0   0     0.000000000000     0.00000000     0.00000000
 C      1   0   0     2.881749967876     0.00000000     0.00000000
 C      2   1   0     2.891904386401   103.64511971     0.00000000
 C      3   2   1     2.809194678944   103.55014469    29.93336722
 C      4   3   2     2.813154253878   111.72531955   347.70247964
 H      1   2   3     2.063384812755   109.62482123    79.56697552
 H      1   2   3     2.056460233456   114.09316804   200.79721378
 H      2   1   3     2.057408379028   113.04091893   237.17595950
 H      2   1   3     2.063364954320   110.17000737   117.45093364
 H      3   2   1     2.063225935473   113.41839192   153.04435618
 H      3   2   1     2.074656097487   110.37325745   271.68226981
 H      4   3   2     2.042647844130   124.88282967   167.81694342
 H      5   4   3     2.060257354457   112.91400597   228.82474858
 O      5   4   3     2.700294105503   112.24507757   111.44380913
 H     14   5   4     1.811022199801   108.82593727   322.48024802

---------------------
BASIS SET INFORMATION
---------------------
There are 3 groups of distinct atoms

 Group   1 Type C   : 11s6p2d1f contracted to 5s3p2d1f pattern {62111/411/11/1}
 Group   2 Type H   : 5s2p1d contracted to 3s2p1d pattern {311/11/1}
 Group   3 Type O   : 11s6p2d1f contracted to 5s3p2d1f pattern {62111/411/11/1}

Atom   0C    basis set group =>   1
Atom   1C    basis set group =>   1
Atom   2C    basis set group =>   1
Atom   3C    basis set group =>   1
Atom   4C    basis set group =>   1
Atom   5H    basis set group =>   2
Atom   6H    basis set group =>   2
Atom   7H    basis set group =>   2
Atom   8H    basis set group =>   2
Atom   9H    basis set group =>   2
Atom  10H    basis set group =>   2
Atom  11H    basis set group =>   2
Atom  12H    basis set group =>   2
Atom  13O    basis set group =>   3
Atom  14H    basis set group =>   2
---------------------------------
AUXILIARY/J BASIS SET INFORMATION
---------------------------------
There are 3 groups of distinct atoms

 Group   1 Type C   : 12s5p4d2f1g contracted to 6s4p3d1f1g pattern {711111/2111/211/2/1}
 Group   2 Type H   : 5s2p1d contracted to 3s1p1d pattern {311/2/1}
 Group   3 Type O   : 12s5p4d2f1g contracted to 6s4p3d1f1g pattern {711111/2111/211/2/1}

Atom   0C    basis set group =>   1
Atom   1C    basis set group =>   1
Atom   2C    basis set group =>   1
Atom   3C    basis set group =>   1
Atom   4C    basis set group =>   1
Atom   5H    basis set group =>   2
Atom   6H    basis set group =>   2
Atom   7H    basis set group =>   2
Atom   8H    basis set group =>   2
Atom   9H    basis set group =>   2
Atom  10H    basis set group =>   2
Atom  11H    basis set group =>   2
Atom  12H    basis set group =>   2
Atom  13O    basis set group =>   3
Atom  14H    basis set group =>   2
---------------------------------
AUXILIARY/C BASIS SET INFORMATION
---------------------------------
There are 3 groups of distinct atoms

 Group   1 Type C   : 8s6p5d3f1g contracted to 8s6p4d3f1g pattern {11111111/111111/2111/111/1}
 Group   2 Type H   : 4s3p2d1f contracted to 4s3p2d1f pattern {1111/111/11/1}
 Group   3 Type O   : 8s6p5d3f1g contracted to 8s6p4d3f1g pattern {11111111/111111/2111/111/1}

Atom   0C    basis set group =>   1
Atom   1C    basis set group =>   1
Atom   2C    basis set group =>   1
Atom   3C    basis set group =>   1
Atom   4C    basis set group =>   1
Atom   5H    basis set group =>   2
Atom   6H    basis set group =>   2
Atom   7H    basis set group =>   2
Atom   8H    basis set group =>   2
Atom   9H    basis set group =>   2
Atom  10H    basis set group =>   2
Atom  11H    basis set group =>   2
Atom  12H    basis set group =>   2
Atom  13O    basis set group =>   3
Atom  14H    basis set group =>   2


           ************************************************************
           *        Program running with 8 parallel MPI-processes     *
           *              working on a common directory               *
           ************************************************************
------------------------------------------------------------------------------
                             ORCA STARTUP CALCULATIONS
                           -- RI-GTO INTEGRALS CHOSEN --
------------------------------------------------------------------------------
------------------------------------------------------------------------------
                   ___                                                        
                  /   \      - P O W E R E D   B Y -                         
                 /     \                                                     
                 |  |  |   _    _      __       _____    __    __             
                 |  |  |  | |  | |    /  \     |  _  \  |  |  /  |          
                  \  \/   | |  | |   /    \    | | | |  |  | /  /          
                 / \  \   | |__| |  /  /\  \   | |_| |  |  |/  /          
                |  |  |   |  __  | /  /__\  \  |    /   |      \           
                |  |  |   | |  | | |   __   |  |    \   |  |\   \          
                \     /   | |  | | |  |  |  |  | |\  \  |  | \   \       
                 \___/    |_|  |_| |__|  |__|  |_| \__\ |__|  \__/        
                                                                              
                      - O R C A' S   B I G   F R I E N D -                    
                                      &                                       
                       - I N T E G R A L  F E E D E R -                       
                                                                              
 v1 FN, 2020, v2 2021, v3 2022-2024                                           
------------------------------------------------------------------------------


----------------------
SHARK INTEGRAL PACKAGE
----------------------

Number of atoms                             ...     15
Number of basis functions                   ...    312
Number of shells                            ...    120
Maximum angular momentum                    ...      3
Integral batch strategy                     ... SHARK/LIBINT Hybrid
RI-J (if used) integral strategy            ... SPLIT-RIJ (Revised 2003 algorithm where possible)
Printlevel                                  ...      1
Contraction scheme used                     ... SEGMENTED contraction
Prescreening option                         ... SCHWARTZ
   Thresh                                   ... 2.500e-11
   Tcut                                     ... 2.500e-12
   Tpresel                                  ... 2.500e-12 
Coulomb Range Separation                    ... NOT USED
Exchange Range Separation                   ... NOT USED
Multipole approximations                    ... NOT USED
Finite Nucleus Model                        ... NOT USED
CABS basis                                  ... NOT available
Auxiliary Coulomb fitting basis             ... AVAILABLE
   # of basis functions in Aux-J            ...    393
   # of shells in Aux-J                     ...    135
   Maximum angular momentum in Aux-J        ...      4
Auxiliary J/K fitting basis                 ... NOT available
Auxiliary Correlation fitting basis         ... AVAILABLE
   # of basis functions in Aux-C            ...    726
   # of shells in Aux-C                     ...    222
   Maximum angular momentum in Aux-C        ...      4
Auxiliary 'external' fitting basis          ... NOT available

Checking pre-screening integrals            ... done (  0.0 sec) Dimension = 120
   => SHARK Basis and OBASIS are compatible. Storing Pre-screening
Shell pair information
Shell pair cut-off parameter TPreSel        ...   2.5e-12
Total number of shell pairs                 ...      7260
Shell pairs after pre-screening             ...      6935
Total number of primitive shell pairs       ...     18687
Primitive shell pairs kept                  ...     14538
          la=0 lb=0:   1544 shell pairs
          la=1 lb=0:   1962 shell pairs
          la=1 lb=1:    648 shell pairs
          la=2 lb=0:   1132 shell pairs
          la=2 lb=1:    733 shell pairs
          la=2 lb=2:    223 shell pairs
          la=3 lb=0:    335 shell pairs
          la=3 lb=1:    213 shell pairs
          la=3 lb=2:    124 shell pairs
          la=3 lb=3:     21 shell pairs

Checking whether 4 symmetric matrices of dimension 312 fit in memory
:Max Core in MB      =  10000.00
 MB in use           =     11.99
 MB left             =   9988.01
 MB needed           =      1.49
 Data fit in memory  = YES
Calculating RI/J V-Matrix + Cholesky decomp.... done (  0.1 sec)
Calculating RI/C V-Matrix + Cholesky decomp.... done (  0.0 sec)
Calculating Nuclear repulsion               ... done (  0.0 sec) ENN=    247.156754001097 Eh

Diagonalization of the overlap matrix:
Smallest eigenvalue                        ... 7.413e-05
Time for diagonalization                   ...    0.036 sec
Threshold for overlap eigenvalues          ... 1.000e-07
Number of eigenvalues below threshold      ... 0
Time for construction of square roots      ...    0.051 sec
Total time needed                          ...    0.088 sec

-------------------
DFT GRID GENERATION
-------------------

General Integration Accuracy     IntAcc      ... 4.388
Radial Grid Type                 RadialGrid  ... OptM3 with GC (2021)
Angular Grid (max. ang.)         AngularGrid ... 4 (Lebedev-302)
Angular grid pruning method      GridPruning ... 4 (adaptive)
Weight generation scheme         WeightScheme... mBecke (2022)
Basis function cutoff            BFCut       ... 1.0000e-11
Integration weight cutoff        WCut        ... 1.0000e-14
Partially contracted basis set               ... off
Rotationally invariant grid construction     ... off
Angular grids for H and He will be reduced by one unit

Total number of grid points                  ...    64982
Total number of batches                      ...     1022
Average number of points per batch           ...       63
Average number of grid points per atom       ...     4332

--------------------
COSX GRID GENERATION
--------------------

GRIDX 1
-------
General Integration Accuracy     IntAcc      ... 3.816
Radial Grid Type                 RadialGrid  ... OptM3 with GC (2021)
Angular Grid (max. ang.)         AngularGrid ... 1 (Lebedev-50)
Angular grid pruning method      GridPruning ... 4 (adaptive)
Weight generation scheme         WeightScheme... mBecke (2022)
Basis function cutoff            BFCut       ... 1.0000e-11
Integration weight cutoff        WCut        ... 1.0000e-14
Partially contracted basis set               ... on
Rotationally invariant grid construction     ... off
Angular grids for H and He will be reduced by one unit

Total number of grid points                  ...     8334
Total number of batches                      ...       76
Average number of points per batch           ...      109
Average number of grid points per atom       ...      556
UseSFitting                                  ... on

GRIDX 2
-------
General Integration Accuracy     IntAcc      ... 4.020
Radial Grid Type                 RadialGrid  ... OptM3 with GC (2021)
Angular Grid (max. ang.)         AngularGrid ... 2 (Lebedev-110)
Angular grid pruning method      GridPruning ... 4 (adaptive)
Weight generation scheme         WeightScheme... mBecke (2022)
Basis function cutoff            BFCut       ... 1.0000e-11
Integration weight cutoff        WCut        ... 1.0000e-14
Partially contracted basis set               ... on
Rotationally invariant grid construction     ... off
Angular grids for H and He will be reduced by one unit

Total number of grid points                  ...    17617
Total number of batches                      ...      145
Average number of points per batch           ...      121
Average number of grid points per atom       ...     1174
UseSFitting                                  ... on

GRIDX 3
-------
General Integration Accuracy     IntAcc      ... 4.338
Radial Grid Type                 RadialGrid  ... OptM3 with GC (2021)
Angular Grid (max. ang.)         AngularGrid ... 3 (Lebedev-194)
Angular grid pruning method      GridPruning ... 4 (adaptive)
Weight generation scheme         WeightScheme... mBecke (2022)
Basis function cutoff            BFCut       ... 1.0000e-11
Integration weight cutoff        WCut        ... 1.0000e-14
Partially contracted basis set               ... on
Rotationally invariant grid construction     ... off
Angular grids for H and He will be reduced by one unit

Total number of grid points                  ...    38590
Total number of batches                      ...      308
Average number of points per batch           ...      125
Average number of grid points per atom       ...     2573
UseSFitting                                  ... on
Grids setup in   0.6 sec
Initializing property integral containers    ... done (  0.0 sec)

SHARK setup successfully completed in   1.5 seconds

Maximum memory used throughout the entire STARTUP-calculation: 25.0 MB


           ************************************************************
           *        Program running with 8 parallel MPI-processes     *
           *              working on a common directory               *
           ************************************************************
-------------------------------------------------------------------------------
                                 ORCA GUESS
                   Start orbitals & Density for SCF / CASSCF
-------------------------------------------------------------------------------

------------
SCF SETTINGS
------------
Hamiltonian:
 Density Functional     Method          .... DFT(GTOs)
 Exchange Functional    Exchange        .... PBE
   PBE kappa parameter   XKappa         ....  0.804000
   PBE mue parameter    XMuePBE         ....  0.219520
 Correlation Functional Correlation     .... P86
 LDA part of GGA corr.  LDAOpt          .... VWN-5
 Gradients option       PostSCFGGA      .... off
 Hybrid DFT is turned on
   Fraction HF Exchange ScalHFX         ....  0.690000
   Scaling of DF-GGA-X  ScalDFX         ....  0.310000
   Scaling of DF-GGA-C  ScalDFC         ....  0.422400
   Scaling of DF-LDA-C  ScalLDAC        ....  0.422400
   Perturbative correction              ....  1.000000
 RI-approximation to the Coulomb term is turned on
   Number of AuxJ basis functions       .... 393
   RIJ-COSX (HFX calculated with COS-X)).... on


General Settings:
 Integral files         IntName         .... opt
 Hartree-Fock type      HFTyp           .... UHF
 Total Charge           Charge          ....    0
 Multiplicity           Mult            ....    2
 Number of Electrons    NEL             ....   47
 Basis Dimension        Dim             ....  312
 Nuclear Repulsion      ENuc            ....    247.1567540011 Eh

Convergence Acceleration:
 AO-DIIS                CNVDIIS         .... on
   Start iteration      DIISMaxIt       ....    12
   Startup error        DIISStart       ....  0.200000
   # of expansion vecs  DIISMaxEq       ....     5
   Bias factor          DIISBfac        ....   1.050
   Max. coefficient     DIISMaxC        ....  10.000
 MO-DIIS                CNVKDIIS        .... off
 Trust-Rad. Augm. Hess. CNVTRAH         .... auto
   Auto Start mean grad. ratio tolernc. ....  1.125000
   Auto Start start iteration           ....    50
   Auto Start num. interpolation iter.  ....    10
   Max. Number of Micro iterations      ....    24
   Max. Number of Macro iterations      .... Maxiter - #DIIS iter
   Number of Davidson start vectors     ....     2
   Converg. threshold    (grad. norm)   ....   1.000e-05
   Grad. Scal. Fac. for Micro threshold ....   0.100
   Minimum threshold for Micro iter.    ....   1.000e-02
   NR start threshold (gradient norm)   ....   1.000e-04
   Initial trust radius                 ....   0.400
   Minimum AH scaling param. (alpha)    ....   1.000
   Maximum AH scaling param. (alpha)    .... 1000.000
   Quad. conv. algorithm                .... NR
   White noise on init. David. guess    .... on
   Maximum white noise                  ....   0.010
   Pseudo random numbers                .... off
   Inactive MOs                         .... canonical
   Orbital update algorithm             .... Taylor
   Preconditioner                       .... Diag
   Full preconditioner red. dimension   ....   250
 SOSCF                 CNVSOSCF           .... on
   Start iteration     SOSCFMaxIt         ....   150
   Startup grad/error  SOSCFStart         ....  0.003300
   Hessian update      SOSCFHessUp        .... L-BFGS
   Autom. constraints  SOSCFAutoConstrain .... off
 Level Shifting         CNVShift        .... on
   Level shift para.    LevelShift      ....    0.2500
   Turn off err/grad.   ShiftErr        ....    0.0010
 Zerner damping         CNVZerner       .... off
 Static damping         CNVDamp         .... on
   Fraction old density DampFac         ....    0.7000
   Max. Damping (<1)    DampMax         ....    0.9800
   Min. Damping (>=0)   DampMin         ....    0.0000
   Turn off err/grad.   DampErr         ....    0.1000

SCF Procedure:
 Maximum # iterations   MaxIter         ....   125
 SCF integral mode      SCFMode         .... Direct
   Integral package                     .... SHARK and LIBINT hybrid scheme
 Reset frequency        DirectResetFreq ....    20
 Integral Threshold     Thresh          ....  2.500e-11 Eh
 Primitive CutOff       TCut            ....  2.500e-12 Eh

Convergence Tolerance:
 Convergence Check Mode ConvCheckMode   .... Total+1el-Energy
 Convergence forced     ConvForced      .... 0
 Energy Change          TolE            ....  1.000e-08 Eh
 1-El. energy change                    ....  1.000e-05 Eh
 Orbital Gradient       TolG            ....  1.000e-05
 Orbital Rotation angle TolX            ....  1.000e-05
 DIIS Error             TolErr          ....  5.000e-07

------------------------------
INITIAL GUESS: MODEL POTENTIAL
------------------------------
Loading Hartree-Fock densities                     ... done
Calculating cut-offs                               ... done
Initializing the effective Hamiltonian             ... done
Setting up the integral package (SHARK)            ... done
Starting the Coulomb interaction                   ... done (   0.1 sec)
Making the grid                                    ... done (   0.1 sec)
Mapping shells                                     ... done
Starting the XC term evaluation                    ... done (   0.0 sec)
  promolecular density results
     # of electrons  =     46.997440955
     EX              =    -36.389648527
     EC              =      0.001574269
     EX+EC           =    -36.388074258
Transforming the Hamiltonian                       ... done (   0.0 sec)
Diagonalizing the Hamiltonian                      ... done (   0.1 sec)
Back transforming the eigenvectors                 ... done (   0.0 sec)
Now organizing SCF variables                       ... done
                      ------------------
                      INITIAL GUESS DONE (   0.3 sec)
                      ------------------
             **** ENERGY FILE WAS UPDATED (opt.en.tmp) ****
Finished Guess after   0.9 sec
Maximum memory used throughout the entire GUESS-calculation: 18.0 MB


           ************************************************************
           *        Program running with 8 parallel MPI-processes     *
           *              working on a common directory               *
           ************************************************************

-------------------------------------------------------------------------------------------
                                      ORCA LEAN-SCF
                              memory conserving SCF solver
-------------------------------------------------------------------------------------------

----------------------------------------D-I-I-S--------------------------------------------
Iteration    Energy (Eh)           Delta-E    RMSDP     MaxDP     DIISErr   Damp  Time(sec)
-------------------------------------------------------------------------------------------
               ***  Starting incremental Fock matrix formation  ***
    1    -269.9489379646208818     0.00e+00  1.30e-03  1.65e-02  1.14e-01  0.700   1.7
    2    -270.0257654424689235    -7.68e-02  1.02e-03  1.13e-02  6.16e-02  0.700   1.0
                               ***Turning on AO-DIIS***
    3    -270.0667903374082925    -4.10e-02  5.40e-04  5.04e-03  3.03e-02  0.700   1.0
    4    -270.0919971749464139    -2.52e-02  1.26e-03  1.44e-02  2.14e-02  0.000   0.9
    5    -270.1482935607380114    -5.63e-02  2.39e-04  3.40e-03  3.37e-03  0.000   0.9
                              *** Initializing SOSCF ***
---------------------------------------S-O-S-C-F--------------------------------------
Iteration    Energy (Eh)           Delta-E    RMSDP     MaxDP     MaxGrad    Time(sec)
--------------------------------------------------------------------------------------
    6    -270.1487172438656899    -4.24e-04  1.47e-04  2.31e-03  1.69e-03     1.0
               *** Restarting incremental Fock matrix formation ***
    7    -270.1488735088880730    -1.56e-04  1.09e-04  1.76e-03  1.27e-03     1.5
    8    -270.1489165805511448    -4.31e-05  1.13e-04  1.76e-03  6.27e-04     1.3
    9    -270.1489308140266985    -1.42e-05  3.63e-05  4.24e-04  4.12e-04     1.2
   10    -270.1489336074909033    -2.79e-06  9.08e-06  1.33e-04  8.25e-05     1.2
   11    -270.1489338239759945    -2.16e-07  3.75e-06  4.87e-05  2.32e-05     1.1
   12    -270.1489338877316868    -6.38e-08  1.60e-06  1.62e-05  8.90e-06     1.1
   13    -270.1489338862107843     1.52e-09  6.31e-07  6.24e-06  1.88e-06     1.0
                 **** Energy Check signals convergence ****

               *****************************************************
               *                     SUCCESS                       *
               *           SCF CONVERGED AFTER  13 CYCLES          *
               *****************************************************

Recomputing exchange energy using gridx3       ... done (    2.118 sec)
Old exchange energy                            :    -25.866733135 Eh
New exchange energy                            :    -25.866765060 Eh
Exchange energy change after final integration :     -0.000031926 Eh
Total energy after final integration           :   -270.148965805 Eh
             **** ENERGY FILE WAS UPDATED (opt.en.tmp) ****

----------------
TOTAL SCF ENERGY
----------------

Total Energy       :       -270.14896580527983 Eh           -7351.12708 eV

Components:
Nuclear Repulsion  :        247.15675400109669 Eh            6725.47719 eV
Electronic Energy  :       -517.30568788050505 Eh          -14076.60341 eV
One Electron Energy:       -855.87119091360239 Eh          -23289.43912 eV
Two Electron Energy:        338.56550303309740 Eh            9212.83571 eV

Virial components:
Potential Energy   :       -539.71119464508956 Eh          -14686.28824 eV
Kinetic Energy     :        269.56222883980968 Eh            7335.16116 eV
Virial Ratio       :          2.00217662900324

DFT components:
N(Alpha)           :       23.999959566786 electrons
N(Beta)            :       22.999981094768 electrons
N(Total)           :       46.999940661554 electrons
E(X)               :      -11.556807016083 Eh       
E(C)               :       -0.719442951695 Eh       
E(XC)              :      -12.276249967778 Eh       

---------------
SCF CONVERGENCE
---------------

  Last Energy change         ...   -1.5209e-09  Tolerance :   1.0000e-08
  Last MAX-Density change    ...    6.2418e-06  Tolerance :   1.0000e-07
  Last RMS-Density change    ...    6.3133e-07  Tolerance :   5.0000e-09
  Last DIIS Error            ...    1.6937e-03  Tolerance :   5.0000e-07
  Last Orbital Gradient      ...    1.8817e-06  Tolerance :   1.0000e-05
  Last Orbital Rotation      ...    5.6159e-06  Tolerance :   1.0000e-05


----------------------
UHF SPIN CONTAMINATION
----------------------

Warning: in a DFT calculation there is little theoretical justification to 
         calculate <S**2> as in Hartree-Fock theory. We will do it anyways
         but you should keep in mind that the values have only limited relevance

Expectation value of <S**2>     :     0.760505
Ideal value S*(S+1) for S=0.5   :     0.750000
Deviation                       :     0.010505

----------------
ORBITAL ENERGIES
----------------
                 SPIN UP ORBITALS
  NO   OCC          E(Eh)            E(eV) 
   0   1.0000     -19.993458      -544.0496 
   1   1.0000     -10.858332      -295.4702 
   2   1.0000     -10.819730      -294.4198 
   3   1.0000     -10.812759      -294.2301 
   4   1.0000     -10.809627      -294.1449 
   5   1.0000     -10.802117      -293.9405 
   6   1.0000      -1.231471       -33.5100 
   7   1.0000      -1.024013       -27.8648 
   8   1.0000      -0.877320       -23.8731 
   9   1.0000      -0.867436       -23.6041 
  10   1.0000      -0.711834       -19.3700 
  11   1.0000      -0.707647       -19.2561 
  12   1.0000      -0.625234       -17.0135 
  13   1.0000      -0.598644       -16.2899 
  14   1.0000      -0.555376       -15.1126 
  15   1.0000      -0.531028       -14.4500 
  16   1.0000      -0.510952       -13.9037 
  17   1.0000      -0.474906       -12.9229 
  18   1.0000      -0.452600       -12.3159 
  19   1.0000      -0.433454       -11.7949 
  20   1.0000      -0.431483       -11.7412 
  21   1.0000      -0.419016       -11.4020 
  22   1.0000      -0.372796       -10.1443 
  23   1.0000      -0.292303        -7.9540 
  24   0.0000       0.091932         2.5016 
  25   0.0000       0.116963         3.1827 
  26   0.0000       0.139340         3.7916 
  27   0.0000       0.144992         3.9454 
  28   0.0000       0.154891         4.2148 
  29   0.0000       0.165782         4.5112 
  30   0.0000       0.170323         4.6347 
  31   0.0000       0.192293         5.2325 
  32   0.0000       0.198226         5.3940 
  33   0.0000       0.234983         6.3942 
  34   0.0000       0.245283         6.6745 

                 SPIN DOWN ORBITALS
  NO   OCC          E(Eh)            E(eV) 
   0   1.0000     -19.990654      -543.9734 
   1   1.0000     -10.860564      -295.5310 
   2   1.0000     -10.814881      -294.2879 
   3   1.0000     -10.809406      -294.1389 
   4   1.0000     -10.802080      -293.9395 
   5   1.0000     -10.799969      -293.8821 
   6   1.0000      -1.223256       -33.2865 
   7   1.0000      -1.010708       -27.5028 
   8   1.0000      -0.870242       -23.6805 
   9   1.0000      -0.846045       -23.0221 
  10   1.0000      -0.709903       -19.3174 
  11   1.0000      -0.685994       -18.6669 
  12   1.0000      -0.615533       -16.7495 
  13   1.0000      -0.589414       -16.0388 
  14   1.0000      -0.551388       -15.0040 
  15   1.0000      -0.519967       -14.1490 
  16   1.0000      -0.493749       -13.4356 
  17   1.0000      -0.470420       -12.8008 
  18   1.0000      -0.445498       -12.1226 
  19   1.0000      -0.430898       -11.7253 
  20   1.0000      -0.424548       -11.5525 
  21   1.0000      -0.412214       -11.2169 
  22   1.0000      -0.368496       -10.0273 
  23   0.0000       0.041103         1.1185 
  24   0.0000       0.098576         2.6824 
  25   0.0000       0.119668         3.2563 
  26   0.0000       0.140993         3.8366 
  27   0.0000       0.147812         4.0222 
  28   0.0000       0.163393         4.4462 
  29   0.0000       0.168121         4.5748 
  30   0.0000       0.174433         4.7466 
  31   0.0000       0.194199         5.2844 
  32   0.0000       0.203516         5.5380 
  33   0.0000       0.240239         6.5372 
*Only the first 10 virtual orbitals were printed.

                    ********************************
                    * MULLIKEN POPULATION ANALYSIS *
                    ********************************

--------------------------------------------
MULLIKEN ATOMIC CHARGES AND SPIN POPULATIONS
--------------------------------------------
   0 C :   -0.148970   -0.002151
   1 C :   -0.152564    0.020274
   2 C :   -0.083574   -0.143981
   3 C :   -0.250732    1.134572
   4 C :    0.246825   -0.106215
   5 H :    0.064030    0.000221
   6 H :    0.084629    0.000694
   7 H :    0.074112   -0.001229
   8 H :    0.060658   -0.001949
   9 H :    0.076688    0.032895
  10 H :    0.068522    0.068192
  11 H :    0.107814   -0.073353
  12 H :    0.066169    0.021709
  13 O :   -0.410982    0.048565
  14 H :    0.197373    0.001756
Sum of atomic charges         :    0.0000000
Sum of atomic spin populations:    1.0000000

-----------------------------------------------------
MULLIKEN REDUCED ORBITAL CHARGES AND SPIN POPULATIONS
-----------------------------------------------------
CHARGE
  0 C s       :     3.116913  s :     3.116913
      pz      :     0.964502  p :     2.923475
      px      :     0.977088
      py      :     0.981885
      dz2     :     0.016421  d :     0.102508
      dxz     :     0.029334
      dyz     :     0.018633
      dx2y2   :     0.015382
      dxy     :     0.022738
      f0      :     0.000681  f :     0.006073
      f+1     :     0.000843
      f-1     :     0.000741
      f+2     :     0.000871
      f-2     :     0.001306
      f+3     :     0.000955
      f-3     :     0.000676

  1 C s       :     3.129937  s :     3.129937
      pz      :     0.963215  p :     2.910592
      px      :     1.045322
      py      :     0.902056
      dz2     :     0.020657  d :     0.105965
      dxz     :     0.023233
      dyz     :     0.020066
      dx2y2   :     0.022173
      dxy     :     0.019837
      f0      :     0.000557  f :     0.006069
      f+1     :     0.000706
      f-1     :     0.001020
      f+2     :     0.001284
      f-2     :     0.000958
      f+3     :     0.000711
      f-3     :     0.000832

  2 C s       :     3.083932  s :     3.083932
      pz      :     0.974737  p :     2.880276
      px      :     0.948027
      py      :     0.957513
      dz2     :     0.015031  d :     0.112995
      dxz     :     0.026233
      dyz     :     0.028777
      dx2y2   :     0.028237
      dxy     :     0.014717
      f0      :     0.000548  f :     0.006371
      f+1     :     0.000853
      f-1     :     0.000798
      f+2     :     0.001694
      f-2     :     0.000788
      f+3     :     0.000884
      f-3     :     0.000807

  3 C s       :     3.270558  s :     3.270558
      pz      :     0.972125  p :     2.887559
      px      :     0.946030
      py      :     0.969404
      dz2     :     0.010493  d :     0.085689
      dxz     :     0.011901
      dyz     :     0.017765
      dx2y2   :     0.023813
      dxy     :     0.021716
      f0      :     0.000756  f :     0.006926
      f+1     :     0.000972
      f-1     :     0.000616
      f+2     :     0.000936
      f-2     :     0.001249
      f+3     :     0.001103
      f-3     :     0.001294

  4 C s       :     3.029862  s :     3.029862
      pz      :     0.937577  p :     2.528989
      px      :     0.695469
      py      :     0.895943
      dz2     :     0.046403  d :     0.181095
      dxz     :     0.027258
      dyz     :     0.024956
      dx2y2   :     0.037045
      dxy     :     0.045434
      f0      :     0.001227  f :     0.013228
      f+1     :     0.002428
      f-1     :     0.000713
      f+2     :     0.001833
      f-2     :     0.002032
      f+3     :     0.002171
      f-3     :     0.002824

  5 H s       :     0.894205  s :     0.894205
      pz      :     0.014980  p :     0.039637
      px      :     0.013532
      py      :     0.011124
      dz2     :     0.000611  d :     0.002127
      dxz     :     0.000413
      dyz     :     0.000414
      dx2y2   :     0.000305
      dxy     :     0.000384

  6 H s       :     0.874847  s :     0.874847
      pz      :     0.010045  p :     0.038458
      px      :     0.010936
      py      :     0.017476
      dz2     :     0.000254  d :     0.002066
      dxz     :     0.000233
      dyz     :     0.000518
      dx2y2   :     0.000556
      dxy     :     0.000505

  7 H s       :     0.884637  s :     0.884637
      pz      :     0.010176  p :     0.039175
      px      :     0.017628
      py      :     0.011372
      dz2     :     0.000199  d :     0.002076
      dxz     :     0.000575
      dyz     :     0.000172
      dx2y2   :     0.000583
      dxy     :     0.000548

  8 H s       :     0.897546  s :     0.897546
      pz      :     0.019123  p :     0.039695
      px      :     0.011526
      py      :     0.009047
      dz2     :     0.000674  d :     0.002100
      dxz     :     0.000409
      dyz     :     0.000562
      dx2y2   :     0.000216
      dxy     :     0.000238

  9 H s       :     0.882215  s :     0.882215
      pz      :     0.013590  p :     0.039016
      px      :     0.009009
      py      :     0.016417
      dz2     :     0.000540  d :     0.002081
      dxz     :     0.000377
      dyz     :     0.000422
      dx2y2   :     0.000377
      dxy     :     0.000365

 10 H s       :     0.890244  s :     0.890244
      pz      :     0.011561  p :     0.039136
      px      :     0.018356
      py      :     0.009219
      dz2     :     0.000424  d :     0.002097
      dxz     :     0.000495
      dyz     :     0.000260
      dx2y2   :     0.000412
      dxy     :     0.000506

 11 H s       :     0.850433  s :     0.850433
      pz      :     0.012927  p :     0.039661
      px      :     0.010991
      py      :     0.015744
      dz2     :     0.000383  d :     0.002092
      dxz     :     0.000221
      dyz     :     0.000480
      dx2y2   :     0.000509
      dxy     :     0.000499

 12 H s       :     0.894051  s :     0.894051
      pz      :     0.018884  p :     0.037362
      px      :     0.007769
      py      :     0.010709
      dz2     :     0.000656  d :     0.002419
      dxz     :     0.000866
      dyz     :     0.000720
      dx2y2   :     0.000071
      dxy     :     0.000106

 13 O s       :     3.769653  s :     3.769653
      pz      :     1.383012  p :     4.613419
      px      :     1.484108
      py      :     1.746299
      dz2     :     0.005192  d :     0.026715
      dxz     :     0.005293
      dyz     :     0.004474
      dx2y2   :     0.007832
      dxy     :     0.003925
      f0      :     0.000118  f :     0.001195
      f+1     :     0.000140
      f-1     :     0.000204
      f+2     :     0.000302
      f-2     :     0.000086
      f+3     :     0.000216
      f-3     :     0.000129

 14 H s       :     0.707291  s :     0.707291
      pz      :     0.029606  p :     0.086481
      px      :     0.022810
      py      :     0.034065
      dz2     :     0.002997  d :     0.008855
      dxz     :     0.001635
      dyz     :     0.002681
      dx2y2   :     0.000892
      dxy     :     0.000650


SPIN
  0 C s       :    -0.002996  s :    -0.002996
      pz      :     0.001423  p :     0.000841
      px      :    -0.000518
      py      :    -0.000065
      dz2     :    -0.000046  d :     0.000035
      dxz     :    -0.000273
      dyz     :     0.000124
      dx2y2   :     0.000181
      dxy     :     0.000049
      f0      :    -0.000000  f :    -0.000030
      f+1     :    -0.000004
      f-1     :    -0.000013
      f+2     :     0.000010
      f-2     :    -0.000004
      f+3     :    -0.000008
      f-3     :    -0.000011

  1 C s       :     0.007561  s :     0.007561
      pz      :     0.003089  p :     0.013459
      px      :     0.003181
      py      :     0.007189
      dz2     :    -0.000346  d :    -0.000718
      dxz     :    -0.000179
      dyz     :    -0.000175
      dx2y2   :     0.000579
      dxy     :    -0.000596
      f0      :     0.000005  f :    -0.000029
      f+1     :     0.000004
      f-1     :    -0.000023
      f+2     :    -0.000004
      f-2     :    -0.000012
      f+3     :    -0.000022
      f-3     :     0.000023

  2 C s       :    -0.039151  s :    -0.039151
      pz      :    -0.051477  p :    -0.127724
      px      :    -0.061061
      py      :    -0.015186
      dz2     :     0.008932  d :     0.021704
      dxz     :     0.003817
      dyz     :     0.000929
      dx2y2   :     0.007891
      dxy     :     0.000134
      f0      :     0.000238  f :     0.001191
      f+1     :     0.000671
      f-1     :     0.000020
      f+2     :     0.000059
      f-2     :     0.000034
      f+3     :     0.000089
      f-3     :     0.000079

  3 C s       :     0.112252  s :     0.112252
      pz      :     0.579465  p :     1.019328
      px      :     0.352207
      py      :     0.087656
      dz2     :     0.000285  d :     0.004550
      dxz     :    -0.002141
      dyz     :     0.002022
      dx2y2   :     0.001427
      dxy     :     0.002957
      f0      :    -0.000396  f :    -0.001557
      f+1     :    -0.000228
      f-1     :    -0.000171
      f+2     :    -0.000246
      f-2     :    -0.000321
      f+3     :    -0.000130
      f-3     :    -0.000065

  4 C s       :    -0.029618  s :    -0.029618
      pz      :    -0.028926  p :    -0.095146
      px      :    -0.017602
      py      :    -0.048618
      dz2     :     0.001726  d :     0.017134
      dxz     :     0.003423
      dyz     :     0.007106
      dx2y2   :     0.004171
      dxy     :     0.000708
      f0      :     0.000202  f :     0.001415
      f+1     :     0.000034
      f-1     :     0.000006
      f+2     :     0.000448
      f-2     :     0.000170
      f+3     :     0.000120
      f-3     :     0.000435

  5 H s       :     0.000391  s :     0.000391
      pz      :     0.000017  p :    -0.000166
      px      :    -0.000080
      py      :    -0.000102
      dz2     :    -0.000000  d :    -0.000004
      dxz     :    -0.000002
      dyz     :    -0.000003
      dx2y2   :     0.000004
      dxy     :    -0.000003

  6 H s       :     0.000637  s :     0.000637
      pz      :     0.000049  p :     0.000054
      px      :     0.000014
      py      :    -0.000009
      dz2     :     0.000000  d :     0.000003
      dxz     :    -0.000000
      dyz     :     0.000002
      dx2y2   :     0.000000
      dxy     :     0.000001

  7 H s       :    -0.001301  s :    -0.001301
      pz      :    -0.000030  p :     0.000062
      px      :    -0.000029
      py      :     0.000122
      dz2     :     0.000001  d :     0.000010
      dxz     :     0.000000
      dyz     :     0.000001
      dx2y2   :     0.000001
      dxy     :     0.000007

  8 H s       :    -0.001825  s :    -0.001825
      pz      :    -0.000123  p :    -0.000125
      px      :    -0.000004
      py      :     0.000002
      dz2     :    -0.000003  d :     0.000001
      dxz     :    -0.000001
      dyz     :     0.000000
      dx2y2   :    -0.000001
      dxy     :     0.000005

  9 H s       :     0.032908  s :     0.032908
      pz      :     0.000106  p :    -0.000023
      px      :    -0.000406
      py      :     0.000276
      dz2     :    -0.000004  d :     0.000011
      dxz     :    -0.000004
      dyz     :    -0.000008
      dx2y2   :     0.000039
      dxy     :    -0.000013

 10 H s       :     0.067578  s :     0.067578
      pz      :     0.000623  p :     0.000572
      px      :    -0.000244
      py      :     0.000194
      dz2     :    -0.000003  d :     0.000042
      dxz     :     0.000046
      dyz     :     0.000013
      dx2y2   :    -0.000012
      dxy     :    -0.000002

 11 H s       :    -0.085773  s :    -0.085773
      pz      :     0.006832  p :     0.011602
      px      :     0.003825
      py      :     0.000945
      dz2     :     0.000256  d :     0.000817
      dxz     :    -0.000011
      dyz     :     0.000273
      dx2y2   :     0.000031
      dxy     :     0.000268

 12 H s       :     0.022055  s :     0.022055
      pz      :    -0.000184  p :    -0.000330
      px      :    -0.000302
      py      :     0.000155
      dz2     :     0.000010  d :    -0.000016
      dxz     :    -0.000019
      dyz     :    -0.000013
      dx2y2   :     0.000001
      dxy     :     0.000005

 13 O s       :    -0.000717  s :    -0.000717
      pz      :     0.003487  p :     0.049536
      px      :     0.033905
      py      :     0.012144
      dz2     :    -0.000085  d :    -0.000253
      dxz     :    -0.000015
      dyz     :    -0.000033
      dx2y2   :     0.000033
      dxy     :    -0.000152
      f0      :    -0.000001  f :    -0.000001
      f+1     :    -0.000001
      f-1     :    -0.000004
      f+2     :    -0.000002
      f-2     :     0.000001
      f+3     :     0.000007
      f-3     :    -0.000002

 14 H s       :     0.002446  s :     0.002446
      pz      :    -0.000097  p :    -0.000809
      px      :    -0.000277
      py      :    -0.000435
      dz2     :     0.000056  d :     0.000119
      dxz     :    -0.000003
      dyz     :     0.000005
      dx2y2   :    -0.000006
      dxy     :     0.000067



                     *******************************
                     * LOEWDIN POPULATION ANALYSIS *
                     *******************************

-------------------------------------------
LOEWDIN ATOMIC CHARGES AND SPIN POPULATIONS
-------------------------------------------
   0 C :   -0.009801    0.000924
   1 C :   -0.014551    0.003018
   2 C :   -0.048953    0.054512
   3 C :    0.073158    0.731953
   4 C :   -0.184192    0.050343
   5 H :    0.018020    0.000551
   6 H :    0.014636    0.000729
   7 H :    0.008926   -0.000224
   8 H :    0.011066   -0.000143
   9 H :    0.014681    0.015681
  10 H :    0.021014    0.034372
  11 H :   -0.021555    0.043950
  12 H :    0.016673    0.011635
  13 O :    0.248866    0.045575
  14 H :   -0.147987    0.007123

----------------------------------------------------
LOEWDIN REDUCED ORBITAL CHARGES AND SPIN POPULATIONS
----------------------------------------------------
CHARGE
  0 C s       :     2.690570  s :     2.690570
      pz      :     0.957317  p :     2.874590
      px      :     0.964052
      py      :     0.953222
      dz2     :     0.062226  d :     0.401797
      dxz     :     0.104696
      dyz     :     0.078160
      dx2y2   :     0.063905
      dxy     :     0.092810
      f0      :     0.006125  f :     0.042843
      f+1     :     0.005419
      f-1     :     0.005757
      f+2     :     0.006470
      f-2     :     0.005733
      f+3     :     0.007734
      f-3     :     0.005605

  1 C s       :     2.687229  s :     2.687229
      pz      :     0.960652  p :     2.873137
      px      :     0.986719
      py      :     0.925766
      dz2     :     0.074733  d :     0.411184
      dxz     :     0.095305
      dyz     :     0.082900
      dx2y2   :     0.081772
      dxy     :     0.076473
      f0      :     0.004710  f :     0.043001
      f+1     :     0.005841
      f-1     :     0.007672
      f+2     :     0.007809
      f-2     :     0.006033
      f+3     :     0.005203
      f-3     :     0.005734

  2 C s       :     2.685235  s :     2.685235
      pz      :     0.972550  p :     2.889888
      px      :     0.971840
      py      :     0.945498
      dz2     :     0.055488  d :     0.428140
      dxz     :     0.098988
      dyz     :     0.103856
      dx2y2   :     0.115790
      dxy     :     0.054018
      f0      :     0.005719  f :     0.045690
      f+1     :     0.006613
      f-1     :     0.006070
      f+2     :     0.007126
      f-2     :     0.005492
      f+3     :     0.007862
      f-3     :     0.006807

  3 C s       :     2.764364  s :     2.764364
      pz      :     0.873395  p :     2.776719
      px      :     0.916746
      py      :     0.986578
      dz2     :     0.046456  d :     0.347584
      dxz     :     0.048763
      dyz     :     0.074039
      dx2y2   :     0.091654
      dxy     :     0.086671
      f0      :     0.003568  f :     0.038175
      f+1     :     0.006270
      f-1     :     0.003456
      f+2     :     0.004455
      f-2     :     0.007111
      f+3     :     0.005361
      f-3     :     0.007955

  4 C s       :     2.693179  s :     2.693179
      pz      :     0.946405  p :     2.740166
      px      :     0.816808
      py      :     0.976953
      dz2     :     0.141938  d :     0.660642
      dxz     :     0.116005
      dyz     :     0.083787
      dx2y2   :     0.153417
      dxy     :     0.165494
      f0      :     0.007636  f :     0.090205
      f+1     :     0.014667
      f-1     :     0.005198
      f+2     :     0.015439
      f-2     :     0.014629
      f+3     :     0.014368
      f-3     :     0.018267

  5 H s       :     0.804494  s :     0.804494
      pz      :     0.054391  p :     0.148279
      px      :     0.053122
      py      :     0.040766
      dz2     :     0.007361  d :     0.029207
      dxz     :     0.007119
      dyz     :     0.005450
      dx2y2   :     0.004079
      dxy     :     0.005198

  6 H s       :     0.808472  s :     0.808472
      pz      :     0.043581  p :     0.147550
      px      :     0.044004
      py      :     0.059965
      dz2     :     0.003643  d :     0.029341
      dxz     :     0.003401
      dyz     :     0.006982
      dx2y2   :     0.008087
      dxy     :     0.007229

  7 H s       :     0.813234  s :     0.813234
      pz      :     0.041506  p :     0.148904
      px      :     0.063238
      py      :     0.044160
      dz2     :     0.003053  d :     0.028936
      dxz     :     0.008366
      dyz     :     0.002159
      dx2y2   :     0.007896
      dxy     :     0.007463

  8 H s       :     0.810361  s :     0.810361
      pz      :     0.059748  p :     0.149554
      px      :     0.050643
      py      :     0.039163
      dz2     :     0.009005  d :     0.029019
      dxz     :     0.007435
      dyz     :     0.006713
      dx2y2   :     0.002987
      dxy     :     0.002879

  9 H s       :     0.808276  s :     0.808276
      pz      :     0.053180  p :     0.148367
      px      :     0.039280
      py      :     0.055907
      dz2     :     0.006560  d :     0.028677
      dxz     :     0.004993
      dyz     :     0.007444
      dx2y2   :     0.005029
      dxy     :     0.004651

 10 H s       :     0.801377  s :     0.801377
      pz      :     0.048583  p :     0.149089
      px      :     0.061978
      py      :     0.038528
      dz2     :     0.005200  d :     0.028520
      dxz     :     0.007839
      dyz     :     0.003207
      dx2y2   :     0.006058
      dxy     :     0.006216

 11 H s       :     0.825879  s :     0.825879
      pz      :     0.053692  p :     0.165926
      px      :     0.046615
      py      :     0.065618
      dz2     :     0.005061  d :     0.029751
      dxz     :     0.002531
      dyz     :     0.007949
      dx2y2   :     0.006872
      dxy     :     0.007337

 12 H s       :     0.813241  s :     0.813241
      pz      :     0.070473  p :     0.141243
      px      :     0.029421
      py      :     0.041349
      dz2     :     0.010733  d :     0.028844
      dxz     :     0.007627
      dyz     :     0.008715
      dx2y2   :     0.000763
      dxy     :     0.001006

 13 O s       :     3.248994  s :     3.248994
      pz      :     1.383988  p :     4.430668
      px      :     1.427854
      py      :     1.618826
      dz2     :     0.015217  d :     0.067080
      dxz     :     0.015642
      dyz     :     0.012290
      dx2y2   :     0.014321
      dxy     :     0.009610
      f0      :     0.000528  f :     0.004392
      f+1     :     0.000816
      f-1     :     0.000694
      f+2     :     0.000750
      f-2     :     0.000399
      f+3     :     0.000639
      f-3     :     0.000566

 14 H s       :     0.692551  s :     0.692551
      pz      :     0.146127  p :     0.355227
      px      :     0.081455
      py      :     0.127645
      dz2     :     0.033005  d :     0.100208
      dxz     :     0.022773
      dyz     :     0.026862
      dx2y2   :     0.009420
      dxy     :     0.008149


SPIN
  0 C s       :     0.000051  s :     0.000051
      pz      :     0.000728  p :     0.001727
      px      :     0.000564
      py      :     0.000434
      dz2     :    -0.000202  d :    -0.000520
      dxz     :    -0.000264
      dyz     :     0.000244
      dx2y2   :    -0.000360
      dxy     :     0.000061
      f0      :    -0.000006  f :    -0.000334
      f+1     :    -0.000034
      f-1     :    -0.000071
      f+2     :    -0.000019
      f-2     :    -0.000020
      f+3     :    -0.000128
      f-3     :    -0.000056

  1 C s       :     0.000737  s :     0.000737
      pz      :     0.000612  p :     0.004751
      px      :     0.000640
      py      :     0.003499
      dz2     :    -0.000798  d :    -0.002119
      dxz     :    -0.000255
      dyz     :    -0.000539
      dx2y2   :     0.000722
      dxy     :    -0.001249
      f0      :    -0.000009  f :    -0.000352
      f+1     :    -0.000008
      f-1     :    -0.000144
      f+2     :    -0.000064
      f-2     :    -0.000074
      f+3     :    -0.000126
      f-3     :     0.000072

  2 C s       :    -0.004365  s :    -0.004365
      pz      :    -0.011341  p :    -0.032013
      px      :    -0.016086
      py      :    -0.004586
      dz2     :     0.033967  d :     0.082703
      dxz     :     0.015256
      dyz     :     0.003356
      dx2y2   :     0.028333
      dxy     :     0.001791
      f0      :     0.001680  f :     0.008187
      f+1     :     0.004674
      f-1     :     0.000116
      f+2     :     0.000399
      f-2     :     0.000155
      f+3     :     0.000811
      f-3     :     0.000351

  3 C s       :     0.027362  s :     0.027362
      pz      :     0.426097  p :     0.715663
      px      :     0.252625
      py      :     0.036940
      dz2     :    -0.000837  d :    -0.009849
      dxz     :    -0.003246
      dyz     :    -0.001451
      dx2y2   :    -0.002620
      dxy     :    -0.001696
      f0      :    -0.000517  f :    -0.001221
      f+1     :     0.000793
      f-1     :    -0.000195
      f+2     :    -0.000285
      f-2     :    -0.000245
      f+3     :    -0.000593
      f-3     :    -0.000178

  4 C s       :    -0.003901  s :    -0.003901
      pz      :    -0.005116  p :    -0.023407
      px      :    -0.000704
      py      :    -0.017587
      dz2     :     0.005122  d :     0.067735
      dxz     :     0.011521
      dyz     :     0.026865
      dx2y2   :     0.016624
      dxy     :     0.007603
      f0      :     0.001096  f :     0.009917
      f+1     :     0.000336
      f-1     :     0.000215
      f+2     :     0.003055
      f-2     :     0.001266
      f+3     :     0.001174
      f-3     :     0.002774

  5 H s       :     0.000588  s :     0.000588
      pz      :     0.000009  p :    -0.000052
      px      :     0.000028
      py      :    -0.000089
      dz2     :     0.000008  d :     0.000015
      dxz     :    -0.000003
      dyz     :    -0.000000
      dx2y2   :     0.000008
      dxy     :     0.000003

  6 H s       :     0.000761  s :     0.000761
      pz      :     0.000011  p :    -0.000041
      px      :     0.000017
      py      :    -0.000070
      dz2     :     0.000004  d :     0.000009
      dxz     :    -0.000005
      dyz     :     0.000001
      dx2y2   :     0.000006
      dxy     :     0.000004

  7 H s       :    -0.000483  s :    -0.000483
      pz      :    -0.000005  p :     0.000194
      px      :     0.000006
      py      :     0.000192
      dz2     :     0.000005  d :     0.000065
      dxz     :    -0.000001
      dyz     :     0.000003
      dx2y2   :     0.000017
      dxy     :     0.000041

  8 H s       :    -0.000680  s :    -0.000680
      pz      :     0.000000  p :     0.000451
      px      :     0.000292
      py      :     0.000159
      dz2     :     0.000002  d :     0.000086
      dxz     :     0.000014
      dyz     :     0.000021
      dx2y2   :    -0.000001
      dxy     :     0.000050

  9 H s       :     0.017935  s :     0.017935
      pz      :     0.000566  p :    -0.001731
      px      :    -0.001861
      py      :    -0.000437
      dz2     :    -0.000142  d :    -0.000524
      dxz     :    -0.000174
      dyz     :    -0.000130
      dx2y2   :     0.000118
      dxy     :    -0.000196

 10 H s       :     0.035391  s :     0.035391
      pz      :    -0.000857  p :    -0.000417
      px      :     0.000677
      py      :    -0.000237
      dz2     :    -0.000231  d :    -0.000603
      dxz     :    -0.000055
      dyz     :    -0.000006
      dx2y2   :    -0.000223
      dxy     :    -0.000088

 11 H s       :    -0.025040  s :    -0.025040
      pz      :     0.031838  p :     0.058056
      px      :     0.019128
      py      :     0.007090
      dz2     :     0.003493  d :     0.010934
      dxz     :     0.000030
      dyz     :     0.003583
      dx2y2   :     0.000399
      dxy     :     0.003428

 12 H s       :     0.013022  s :     0.013022
      pz      :    -0.000471  p :    -0.000833
      px      :    -0.000315
      py      :    -0.000047
      dz2     :    -0.000096  d :    -0.000554
      dxz     :    -0.000165
      dyz     :    -0.000273
      dx2y2   :    -0.000021
      dxy     :     0.000001

 13 O s       :     0.003099  s :     0.003099
      pz      :     0.002089  p :     0.043473
      px      :     0.027575
      py      :     0.013810
      dz2     :    -0.000142  d :    -0.000914
      dxz     :    -0.000259
      dyz     :    -0.000157
      dx2y2   :    -0.000313
      dxy     :    -0.000042
      f0      :    -0.000011  f :    -0.000083
      f+1     :    -0.000005
      f-1     :    -0.000011
      f+2     :    -0.000017
      f-2     :    -0.000009
      f+3     :    -0.000014
      f-3     :    -0.000016

 14 H s       :     0.004407  s :     0.004407
      pz      :     0.001706  p :     0.000685
      px      :    -0.000165
      py      :    -0.000856
      dz2     :     0.001122  d :     0.002031
      dxz     :     0.000416
      dyz     :    -0.000012
      dx2y2   :    -0.000050
      dxy     :     0.000555



                      *****************************
                      * MAYER POPULATION ANALYSIS *
                      *****************************

  NA   - Mulliken gross atomic population
  ZA   - Total nuclear charge
  QA   - Mulliken gross atomic charge
  VA   - Mayer's total valence
  BVA  - Mayer's bonded valence
  FA   - Mayer's free valence

  ATOM       NA         ZA         QA         VA         BVA        FA
  0 C      6.1490     6.0000    -0.1490     3.8860     3.8859     0.0000
[...]
      dxy     :     0.000050
  9 H s       :     0.015731  s :     0.015731
      pz      :     0.000965  p :    -0.000441
      px      :    -0.001314
      py      :    -0.000093
      dz2     :    -0.000073  d :    -0.000223
      dxz     :    -0.000104
      dyz     :    -0.000078
      dx2y2   :     0.000149
      dxy     :    -0.000116
 10 H s       :     0.033779  s :     0.033779
      pz      :    -0.000443  p :     0.001170
      px      :     0.001654
      py      :    -0.000041
      dz2     :    -0.000133  d :    -0.000319
      dxz     :     0.000000
      dyz     :     0.000005
      dx2y2   :    -0.000147
      dxy     :    -0.000046
 11 H s       :    -0.015900  s :    -0.015900
      pz      :     0.030826  p :     0.054193
      px      :     0.018142
      py      :     0.005225
      dz2     :     0.003312  d :     0.009935
      dxz     :    -0.000007
      dyz     :     0.003258
      dx2y2   :     0.000230
      dxy     :     0.003142
 12 H s       :     0.011154  s :     0.011154
      pz      :    -0.000066  p :     0.000339
      px      :    -0.000017
      py      :     0.000422
      dz2     :    -0.000023  d :    -0.000275
      dxz     :    -0.000099
      dyz     :    -0.000150
      dx2y2   :    -0.000014
      dxy     :     0.000011
 13 O s       :     0.002961  s :     0.002961
      pz      :     0.001556  p :     0.045078
      px      :     0.027227
      py      :     0.016295
      dz2     :    -0.000057  d :    -0.000220
      dxz     :    -0.000076
      dyz     :    -0.000083
      dx2y2   :    -0.000113
      dxy     :     0.000110
      f0      :    -0.000004  f :    -0.000033
      f+1     :    -0.000000
      f-1     :    -0.000009
      f+2     :    -0.000007
      f-2     :    -0.000002
      f+3     :    -0.000005
      f-3     :    -0.000005
 14 H s       :     0.006393  s :     0.006393
      pz      :     0.001959  p :     0.001105
      px      :    -0.000194
      py      :    -0.000659
      dz2     :     0.001260  d :     0.002064
      dxz     :     0.000303
      dyz     :    -0.000000
      dx2y2   :    -0.000045
      dxy     :     0.000547


                      *****************************
                      * MAYER POPULATION ANALYSIS *
                      *****************************

  NA   - Mulliken gross atomic population
  ZA   - Total nuclear charge
  QA   - Mulliken gross atomic charge
  VA   - Mayer's total valence
  BVA  - Mayer's bonded valence
  FA   - Mayer's free valence

  ATOM       NA         ZA         QA         VA         BVA        FA
  0 C      6.1665     6.0000    -0.1665     3.9227     3.7378     0.1849
  1 C      6.1797     6.0000    -0.1797     3.9982     3.8128     0.1853
  2 C      6.1078     6.0000    -0.1078     3.9469     3.7602     0.1867
  3 C      6.2492     6.0000    -0.2492     3.9256     3.0046     0.9209
  4 C      5.8069     6.0000     0.1931     3.9792     3.7956     0.1836
  5 H      0.9253     1.0000     0.0747     1.0201     0.9838     0.0363
  6 H      0.9064     1.0000     0.0936     1.0251     0.9903     0.0348
  7 H      0.9151     1.0000     0.0849     1.0161     0.9812     0.0349
  8 H      0.9272     1.0000     0.0728     1.0196     0.9834     0.0362
  9 H      0.9113     1.0000     0.0887     1.0100     0.9740     0.0359
 10 H      0.9172     1.0000     0.0828     1.0079     0.9682     0.0398
 11 H      0.8885     1.0000     0.1115     1.0199     0.9840     0.0359
 12 H      0.9204     1.0000     0.0796     1.0075     0.9722     0.0353
 13 O      8.3673     8.0000    -0.3673     2.1822     1.9487     0.2335
 14 H      0.8113     1.0000     0.1887     1.0616     1.0231     0.0385

  Mayer bond orders larger than 0.100000
B(  0-C ,  1-C ) :   0.9018 B(  0-C ,  4-C ) :   0.9222 B(  0-C ,  5-H ) :   0.9618 
B(  0-C ,  6-H ) :   0.9684 B(  1-C ,  2-C ) :   0.9177 B(  1-C ,  7-H ) :   0.9714 
B(  1-C ,  8-H ) :   0.9761 B(  2-C ,  3-C ) :   0.9597 B(  2-C ,  9-H ) :   0.9640 
B(  2-C , 10-H ) :   0.9472 B(  3-C ,  4-C ) :   0.9813 B(  3-C , 11-H ) :   0.9789 
B(  4-C , 12-H ) :   0.9663 B(  4-C , 13-O ) :   0.9158 B( 13-O , 14-H ) :   0.9781 



-------
TIMINGS
-------

Total time                :   21.638 sec
Integral trafo            :    0.506 sec (  2.3%)
FC preparation            :    0.252 sec (  1.2%)
I/O of integrals          :    0.155 sec (  0.7%)
K(i,j) operators          :    0.425 sec (  2.0%)
T(i,j) pair energies      :    0.094 sec (  0.4%)
V**(-1/2)                 :    0.111 sec (  0.5%)
Gamma(ia|P)               :    0.443 sec (  2.0%)
Gamma-Trafo               :    0.091 sec (  0.4%)
D(virtual)                :    0.085 sec (  0.4%)
D(internal)               :    0.443 sec (  2.0%)
W(virtual)                :    0.088 sec (  0.4%)
W(internal)               :    0.392 sec (  1.8%)
L(virtual)                :    0.256 sec (  1.2%)
L(internal)               :    0.014 sec (  0.1%)
XC kernel                 :    0.022 sec (  0.1%)
G(D)                      :    1.342 sec (  6.2%)
G(Z)                      :    1.353 sec (  6.3%)
Z-vector solution         :    3.755 sec ( 17.4%)
3-index derivative        :    0.515 sec (  2.4%)
2-index derivative        :    0.041 sec (  0.2%)
Fock matrix gradient      :   10.318 sec ( 47.7%)


---------------------------------------
MP2 TOTAL ENERGY:     -270.702407122 Eh
---------------------------------------

The final MP2 gradient
  0:  -0.00005308   0.00001622  -0.00001913
  1:   0.00001674   0.00003152   0.00004867
  2:  -0.00007162  -0.00002858  -0.00004762
  3:  -0.00001127   0.00000270   0.00002790
  4:   0.00011247  -0.00002213   0.00005773
  5:   0.00001439  -0.00001142   0.00000932
  6:   0.00001017  -0.00002758   0.00001447
  7:   0.00000334  -0.00000766  -0.00003053
  8:   0.00001599  -0.00002386  -0.00002448
  9:   0.00003042   0.00000786   0.00000774
 10:   0.00001120  -0.00000001   0.00001946
 11:   0.00000415  -0.00000850  -0.00000527
 12:  -0.00005474  -0.00001498  -0.00001494
 13:   0.00002631   0.00002683  -0.00000601
 14:  -0.00005188  -0.00001553  -0.00002181

-----------------------------------
NORM OF THE MP2 GRADIENT:  0.000216
-----------------------------------

Maximum memory used throughout the entire MP2-calculation: 69.5 MB


-------------------------------------------------------------------------------
                          DFT DISPERSION CORRECTION                            
                                                                               
                                DFTD4 V3.4.0                                   
-------------------------------------------------------------------------------
The REV-DSD-PBEP86-2021 functional is recognized
A user input s6-coefficient scaling factor has been recognized
A user input a1-coefficient scaling factor has been recognized
A user input s8-coefficient scaling factor has been recognized
A user input a2-coefficient scaling factor has been recognized
A user input s9-coefficient scaling factor has been recognized
Active option DFTDOPT                   ...         5   

-------------------------   ----------------
Dispersion correction           -0.007993049
-------------------------   ----------------


-------------------------   --------------------
FINAL SINGLE POINT ENERGY      -270.710400171497
-------------------------   --------------------

                                *** OPTIMIZATION RUN DONE ***



           ************************************************************
           *        Program running with 8 parallel MPI-processes     *
           *              working on a common directory               *
           ************************************************************

------------------------------------------------------------------------------
                              ORCA PROPERTY CALCULATIONS
------------------------------------------------------------------------------

GBWName                                 ... opt.gbw
Number of atoms                         ...     15
Number of basis functions               ...    312
Max core memory                         ...  10000 MB

Electric properties:
Dipole moment                           ... YES
Quadrupole moment                       ...  NO
Static polarizability (Dipole/Dipole)   ...  NO
Static polarizability (Dipole/Quad.)    ...  NO
Static polarizability (Quad./Quad.)     ...  NO
Static polarizability (Velocity)        ...  NO
Static hyperpolarizability              ...  NO

Atomic electric properties:
Dipole moment                           ...  NO
Quadrupole moment                       ...  NO
Static polarizability                   ...  NO

Choice of electric origin               ... Center of mass
Position of electric origin             ...     0.550115     0.019874    -0.166176

General magnetic properties:
Magnetizability                         ...  NO

EPR properties:
g-Tensor (aka g-matrix)                 ...  NO
Zero-Field splitting spin-orbit         ...  NO
Zero-field splitting spin-spin          ...  NO
Hyperfine couplings                     ...  NO (   0 nuclei)
Quadrupole couplings                    ...  NO (   0 nuclei)
Contact density                         ...  NO (   0 nuclei)

NMR properties:
Chemical shifts                         ...  NO (   0 nuclei)
Spin-rotation constants                 ...  NO (   0 nuclei)
Spin-spin couplings                     ...  NO (   0 nuclei,    0 pairs)

Choice of magnetic origin               ... GIAO
Position of magnetic origin             ...     0.000000     0.000000     0.000000

Properties with geometric perturbations:
SCF Hessian                             ...  NO
IR spectrum                             ...  NO
VCD spectrum                            ...  NO
X-ray spectroscopy properties:
SCF XES/XAS/RIXS spectra                ...  NO

SCF SOC stabilization energy            ...  NO
Diagonal Born-Oppenheimer correction    ...  NO

-------------
DIPOLE MOMENT
-------------

Method             : SCF
Type of density    : Electron Density
Multiplicity       :   2
Irrep              :   0
Energy             :  -270.1486338263634366 Eh
Basis              : AO
                                X                 Y                 Z
Electronic contribution:      3.118756030      -0.247752664      -1.080057294
Nuclear contribution   :     -3.799038973      -0.057830664       1.323325779
                        -----------------------------------------
Total Dipole Moment    :     -0.680282943      -0.305583328       0.243268484
                        -----------------------------------------
Magnitude (a.u.)       :      0.784439678
Magnitude (Debye)      :      1.993887205



--------------------
Rotational spectrum 
--------------------
 
Rotational constants in cm-1:             0.194245             0.112174             0.088916 
Rotational constants in MHz :          5823.320218          3362.885688          2665.636393 

Dipole components along the rotational axes: 
x,y,z [a.u.] :    -0.773026    -0.118843    -0.060433 
x,y,z [Debye]:    -1.964877    -0.302076    -0.153608 

 

-------------
DIPOLE MOMENT
-------------

Method             : MP2
Type of density    : Electron Density
Multiplicity       :   2
Level              : Unrelaxed density
Irrep              :   0
Energy             :     0.0000000000000000 Eh
Basis              : AO
                                X                 Y                 Z
Electronic contribution:      3.130916810      -0.242296535      -1.081817712
Nuclear contribution   :     -3.799038973      -0.057830664       1.323325779
                        -----------------------------------------
Total Dipole Moment    :     -0.668122163      -0.300127199       0.241508067
                        -----------------------------------------
Magnitude (a.u.)       :      0.771226106
Magnitude (Debye)      :      1.960300975



--------------------
Rotational spectrum 
--------------------
 
Rotational constants in cm-1:             0.194245             0.112174             0.088916 
Rotational constants in MHz :          5823.320218          3362.885688          2665.636393 

Dipole components along the rotational axes: 
x,y,z [a.u.] :    -0.759953    -0.115982    -0.061719 
x,y,z [Debye]:    -1.931647    -0.294802    -0.156877 

 

-------------
DIPOLE MOMENT
-------------

Method             : MP2
Type of density    : Electron Density
Multiplicity       :   2
Level              : Relaxed density
Irrep              :   0
Energy             :     0.0000000000000000 Eh
Basis              : AO
                                X                 Y                 Z
Electronic contribution:      3.148572353      -0.235495567      -1.082138383
Nuclear contribution   :     -3.799038973      -0.057830664       1.323325779
                        -----------------------------------------
Total Dipole Moment    :     -0.650466620      -0.293326231       0.241187396
                        -----------------------------------------
Magnitude (a.u.)       :      0.753205457
Magnitude (Debye)      :      1.914496125



--------------------
Rotational spectrum 
--------------------
 
Rotational constants in cm-1:             0.194245             0.112174             0.088916 
Rotational constants in MHz :          5823.320218          3362.885688          2665.636393 

Dipole components along the rotational axes: 
x,y,z [a.u.] :    -0.741875    -0.112246    -0.065880 
x,y,z [Debye]:    -1.885698    -0.285306    -0.167454 

 

Dipole moment calculation done in   0.1 sec 

Maximum memory used throughout the entire PROP-calculation: 17.0 MB

--------------------------------
SUGGESTED CITATIONS FOR THIS RUN
--------------------------------

Below you find a list of papers that are relevant to this ORCA run
We neither can nor want to force you to cite these papers, but we appreciate if you do
You receive ORCA, which is the product of decades of hard work by many enthusiastic individuals, for free
The only thing we kindly ask in return is that you cite our papers,
We deeply appreciate it, if you show your appreciation for ORCA by not just citing the generic ORCA reference.

Please note that relegating all ORCA citations to the supporting information does *not* help us.
SI sections are not indexed - citations you put there will not count into any citation statistics
But we need these citations in order to attract the funding resources that allow us to do what we are doing

Therefore, if you are a happy ORCA user, please consider citing a few of the papers listed below in the main body of your paper

In addition to the list printed below, the program has created the file opt.bibtex that contains the list in bibtex format
You can import this file easily into all common literature databanks and citation aid programs


List of essential papers. We consider these as the minimum necessary citations

  1. Neese, F.
     Software update: the ORCA program system, version 6.0
     WIRES Comput. Molec. Sci. 2025 15(1), e70019
     doi.org/10.1002/wcms.7019

List of papers to cite with high priority. The work reported in these papers was absolutely
necessary for this run to complete.
Our perspective: the developers of density functionals and basis sets usually get cited in chemistry papers
Good! But without the algorithms to do something with them, the functionals or basis sets would not do anything.
Hence, in our opinion, the algorithm design and method developments papers are equally worthy of getting cited

  1. Neese, F.
     An improvement of the resolution of the identity approximation for the formation of the Coulomb matrix
     J. Comp. Chem. 2003 24(14), 1740-1747
     doi.org/10.1002/jcc.10318
  2. Neese, F.; Schwabe, T.; Grimme, S.
     Analytic derivatives for perturbatively corrected 'double hybrid' density functionals: Theory, implementation, and applications
     J. Chem. Phys. 2007 126(12), Art. No. 124115
     doi.org/10.1063/1.2712433
  3. Neese, F.; Wennmohs, F.; Hansen, A.; Becker, U.
     Efficient, approximate and parallel Hartree-Fock and hybrid DFT calculations. A 'chain-of-spheres' algorithm for the Hartree-Fock exchange
     Chem. Phys. 2009 356(1-3), 98-109
     doi.org/10.1016/j.chemphys.2008.10.036
  4. Kossmann, S.; Neese, F.
     Efficient Structure Optimization with Second-Order Many-Body Perturbation Theory: The RIJCOSX-MP2 Method
     J. Theo. Comp. Chem. 2010 6 , 2325-2338
     doi.org/10.1021/ct100199k
  5. Caldeweyher, E.; Bannwarth, C.; Grimme, S.
     Extension of the D3 dispersion coefficient model
     J. Chem. Phys. 2017 147 , 034112
     doi.org/10.1063/1.4993215
  6. Caldeweyher, E.; Ehlert, S.; Hansen, A.; Neugebauer, H.; Spicher, S.; Bannwarth, C.; Grimme, S.
     A generally applicable atomic-charge dependent London dispersion correction
     J. Chem. Phys. 2019 150 , 154122
     doi.org/10.1063/1.5090222
  7. Caldeweyher, E.; Mewes, J.; Ehlert, S.; Grimme, S.
     Extension and evaluation of the D4 London-dispersion model for periodic systems
     Phys. Chem. Chem. Phys. 2020 22(16), 8499-8512
     doi.org/10.1039/D0CP00502A
  8. Helmich-Paris, B.; de Souza, B.; Neese, F.; Izsák, R.
     An improved chain of spheres for exchange algorithm
     J. Chem. Phys. 2021 155(10), 104109
     doi.org/10.1063/5.0058766
  9. Neese, F.
     The SHARK Integral Generation and Digestion System
     J. Comp. Chem. 2022 44(3), 381
     doi.org/10.1002/jcc.26942
 10. Wittmann, L.; Gordiy, I.; Friede, M.; Helmich-Paris, B.; Grimme, S.; Hansen, A.; Bursch, M.
     Extension of the D3 and D4 London Dispersion Corrections to the full Actinides Series
     Phys. Chem. Chem. Phys. 2024 26(32), 21379-21394
     doi.org/10.1039/D4CP01514B

List of suggested additional citations. These are papers that are important in the 'surrounding' of 
of this run, or papers that preceded the highly important papers. If you like your results we are grateful for a citation.

  1. Izsak, R.; Neese, F.
     An overlap fitted chain of spheres exchange method
     J. Chem. Phys. 2011 135 , 144105
     doi.org/10.1063/1.3646921
  2. Izsak, R.; Hansen, A.; Neese, F.
     The resolution of identity and chain of spheres approximations for the LPNO-CCSD singles Fock term
     Molec. Phys. 2012 110 , 2413-2417
     doi.org/10.1080/00268976.2012.687466
  3. Neese, F.
     The ORCA program system
     WIRES Comput. Molec. Sci. 2012 2(1), 73-78
     doi.org/10.1002/wcms.81
  4. Izsak, R.; Neese, F.; Klopper, W.
     Robust fitting techniques in the chain of spheres approximation to the Fock exchange: The role of the complementary space
     J. Chem. Phys. 2013 139 , 
     doi.org/10.1063/1.4819264
  5. Neese, F.
     Software update: the ORCA program system, version 4.0
     WIRES Comput. Molec. Sci. 2018 8(1), 1-6
     doi.org/10.1002/wcms.1327
  6. Neese, F.; Wennmohs, F.; Becker, U.; Riplinger, C.
     The ORCA quantum chemistry program package
     J. Chem. Phys. 2020 152(22), 224108
     doi.org/10.1063/5.0004608
  7. Neese, F.
     Software update: The ORCA program system—Version 5.0
     WIRES Comput. Molec. Sci. 2022 12(1), e1606
     doi.org/10.1002/wcms.1606

List of optional additional citations

  1. Neese, F.
     Approximate second-order SCF convergence for spin unrestricted wavefunctions
     Chem. Phys. Lett. 2000 325(1-3), 93-98
     doi.org/10.1016/s0009-2614(00)00662-x

Timings for individual modules:

Sum of individual times          ...      247.309 sec (=   4.122 min)
Startup calculation              ...       17.224 sec (=   0.287 min)   7.0 %
SCF iterations                   ...       90.559 sec (=   1.509 min)  36.6 %
Property calculations            ...        1.820 sec (=   0.030 min)   0.7 %
MP2 module                       ...      137.676 sec (=   2.295 min)  55.7 %
Geometry relaxation              ...        0.031 sec (=   0.001 min)   0.0 %
                             ****ORCA TERMINATED NORMALLY****
TOTAL RUN TIME: 0 days 0 hours 4 minutes 18 seconds 18 msec
