15
* (null), Energy   -1000.0000000
C     1.910696    1.410401   -0.031461   -0.001936   -0.168346    0.308366
C     0.699204    2.301734    0.312396    0.009602   -0.042036    0.039968
C    -0.543951    1.438314    0.004495    0.016792   -0.019704   -0.025384
C    -0.003502    0.036638    0.030755   -0.144096   -0.031930    0.048558
C     1.343501    0.019940    0.064514    0.041822   -0.221848    1.018912
H     2.269626    1.585785   -1.052028   -0.181680   -0.730100    0.081506
H     2.750884    1.560123    0.646422    0.049938    0.181644    0.195274
H     0.700792    3.243296   -0.237103    0.126800   -0.120070   -0.102874
H     0.718852    2.525596    1.378027   -0.095220    0.081968    0.029706
H    -1.350390    1.590793    0.724583   -0.093392    0.041990   -0.153866
H    -0.957399    1.654596   -0.988235    0.098602   -0.052150   -0.075874
H    -0.629409   -0.846618   -0.001803   -0.202204    0.030776   -0.134170
H     1.951569   -0.870382   -0.013591   -0.045138   -0.215104    0.189120
O     1.192161   -0.009838    2.206779    0.086486    0.412280   -0.993590
H     0.737701   -0.854639    2.328103   -0.103218    0.002892   -0.826340
15
* Frequency(6) -322.4800
C     1.910476    1.391269    0.003583   -0.001936   -0.168346    0.308366
C     0.700295    2.296957    0.316938    0.009602   -0.042036    0.039968
C    -0.542043    1.436075    0.001610    0.016792   -0.019704   -0.025384
C    -0.019878    0.033009    0.036273   -0.144096   -0.031930    0.048558
C     1.348254   -0.005272    0.180308    0.041822   -0.221848    1.018912
H     2.248979    1.502813   -1.042765   -0.181680   -0.730100    0.081506
H     2.756559    1.580766    0.668614    0.049938    0.181644    0.195274
H     0.715202    3.229651   -0.248794    0.126800   -0.120070   -0.102874
H     0.708031    2.534911    1.381403   -0.095220    0.081968    0.029706
H    -1.361004    1.595565    0.707097   -0.093392    0.041990   -0.153866
H    -0.946193    1.648669   -0.996858    0.098602   -0.052150   -0.075874
H    -0.652388   -0.843120   -0.017051   -0.202204    0.030776   -0.134170
H     1.946439   -0.894827    0.007902   -0.045138   -0.215104    0.189120
O     1.201990    0.037015    2.093863    0.086486    0.412280   -0.993590
H     0.725971   -0.854310    2.234194   -0.103218    0.002892   -0.826340
15
* Frequency(6) -322.4800
C     1.910280    1.374211    0.034830   -0.001936   -0.168346    0.308366
C     0.701268    2.292697    0.320988    0.009602   -0.042036    0.039968
C    -0.540341    1.434078   -0.000962    0.016792   -0.019704   -0.025384
C    -0.034479    0.029774    0.041194   -0.144096   -0.031930    0.048558
C     1.352492   -0.027752    0.283554    0.041822   -0.221848    1.018912
H     2.230569    1.428832   -1.034506   -0.181680   -0.730100    0.081506
H     2.761619    1.599172    0.688401    0.049938    0.181644    0.195274
H     0.728051    3.217484   -0.259218    0.126800   -0.120070   -0.102874
H     0.698382    2.543217    1.384413   -0.095220    0.081968    0.029706
H    -1.370467    1.599820    0.691506   -0.093392    0.041990   -0.153866
H    -0.936202    1.643385   -1.004546    0.098602   -0.052150   -0.075874
H    -0.672878   -0.840002   -0.030646   -0.202204    0.030776   -0.134170
H     1.941865   -0.916624    0.027065   -0.045138   -0.215104    0.189120
O     1.210753    0.078792    1.993183    0.086486    0.412280   -0.993590
H     0.715512   -0.854017    2.150461   -0.103218    0.002892   -0.826340
15
* Frequency(6) -322.4800
C     1.910129    1.361074    0.058893   -0.001936   -0.168346    0.308366
C     0.702017    2.289417    0.324107    0.009602   -0.042036    0.039968
C    -0.539031    1.432541   -0.002943    0.016792   -0.019704   -0.025384
C    -0.045723    0.027282    0.044983   -0.144096   -0.031930    0.048558
C     1.355755   -0.045063    0.363064    0.041822   -0.221848    1.018912
H     2.216392    1.371860   -1.028146   -0.181680   -0.730100    0.081506
H     2.765516    1.613346    0.703639    0.049938    0.181644    0.195274
H     0.737945    3.208114   -0.267246    0.126800   -0.120070   -0.102874
H     0.690952    2.549613    1.386731   -0.095220    0.081968    0.029706
H    -1.377755    1.603096    0.679499   -0.093392    0.041990   -0.153866
H    -0.928508    1.639316   -1.010467    0.098602   -0.052150   -0.075874
H    -0.688656   -0.837600   -0.041116   -0.202204    0.030776   -0.134170
H     1.938343   -0.933409    0.041823   -0.045138   -0.215104    0.189120
O     1.217502    0.110963    1.915649    0.086486    0.412280   -0.993590
H     0.707457   -0.853792    2.085979   -0.103218    0.002892   -0.826340
15
* Frequency(6) -322.4800
C     1.910039    1.353283    0.073165   -0.001936   -0.168346    0.308366
C     0.702462    2.287472    0.325957    0.009602   -0.042036    0.039968
C    -0.538254    1.431629   -0.004118    0.016792   -0.019704   -0.025384
C    -0.052392    0.025804    0.047230   -0.144096   -0.031930    0.048558
C     1.357691   -0.055331    0.410221    0.041822   -0.221848    1.018912
H     2.207984    1.338069   -1.024374   -0.181680   -0.730100    0.081506
H     2.767827    1.621753    0.712677    0.049938    0.181644    0.195274
H     0.743814    3.202557   -0.272007    0.126800   -0.120070   -0.102874
H     0.686545    2.553407    1.388106   -0.095220    0.081968    0.029706
H    -1.382077    1.605040    0.672378   -0.093392    0.041990   -0.153866
H    -0.923944    1.636902   -1.013978    0.098602   -0.052150   -0.075874
H    -0.698015   -0.836176   -0.047326   -0.202204    0.030776   -0.134170
H     1.936254   -0.943365    0.050576   -0.045138   -0.215104    0.189120
O     1.221505    0.130045    1.869664    0.086486    0.412280   -0.993590
H     0.702680   -0.853658    2.047734   -0.103218    0.002892   -0.826340
15
* Frequency(6) -322.4800
C     1.910021    1.351681    0.076098   -0.001936   -0.168346    0.308366
C     0.702553    2.287072    0.326337    0.009602   -0.042036    0.039968
C    -0.538094    1.431441   -0.004359    0.016792   -0.019704   -0.025384
C    -0.053763    0.025501    0.047692   -0.144096   -0.031930    0.048558
C     1.358089   -0.057442    0.419915    0.041822   -0.221848    1.018912
H     2.206255    1.331123   -1.023598   -0.181680   -0.730100    0.081506
H     2.768303    1.623481    0.714534    0.049938    0.181644    0.195274
H     0.745020    3.201415   -0.272986    0.126800   -0.120070   -0.102874
H     0.685639    2.554187    1.388389   -0.095220    0.081968    0.029706
H    -1.382966    1.605439    0.670914   -0.093392    0.041990   -0.153866
H    -0.923006    1.636406   -1.014700    0.098602   -0.052150   -0.075874
H    -0.699939   -0.835883   -0.048602   -0.202204    0.030776   -0.134170
H     1.935825   -0.945411    0.052375   -0.045138   -0.215104    0.189120
O     1.222328    0.133967    1.860210    0.086486    0.412280   -0.993590
H     0.701698   -0.853630    2.039872   -0.103218    0.002892   -0.826340
15
* Frequency(6) -322.4800
C     1.910075    1.356443    0.067377   -0.001936   -0.168346    0.308366
C     0.702282    2.288261    0.325207    0.009602   -0.042036    0.039968
C    -0.538569    1.431998   -0.003641    0.016792   -0.019704   -0.025384
C    -0.049688    0.026404    0.046319   -0.144096   -0.031930    0.048558
C     1.356906   -0.051167    0.391096    0.041822   -0.221848    1.018912
H     2.211394    1.351773   -1.025904   -0.181680   -0.730100    0.081506
H     2.766890    1.618344    0.709011    0.049938    0.181644    0.195274
H     0.741434    3.204811   -0.270076    0.126800   -0.120070   -0.102874
H     0.688332    2.551868    1.387548   -0.095220    0.081968    0.029706
H    -1.380324    1.604252    0.675266   -0.093392    0.041990   -0.153866
H    -0.925795    1.637881   -1.012554    0.098602   -0.052150   -0.075874
H    -0.694220   -0.836754   -0.044807   -0.202204    0.030776   -0.134170
H     1.937101   -0.939327    0.047026   -0.045138   -0.215104    0.189120
O     1.219882    0.122306    1.888313    0.086486    0.412280   -0.993590
H     0.704617   -0.853712    2.063244   -0.103218    0.002892   -0.826340
15
* Frequency(6) -322.4800
C     1.910197    1.367051    0.047944   -0.001936   -0.168346    0.308366
C     0.701677    2.290910    0.322688    0.009602   -0.042036    0.039968
C    -0.539627    1.433240   -0.002041    0.016792   -0.019704   -0.025384
C    -0.040607    0.028416    0.043259   -0.144096   -0.031930    0.048558
C     1.354270   -0.037187    0.326887    0.041822   -0.221848    1.018912
H     2.222843    1.397782   -1.031040   -0.181680   -0.730100    0.081506
H     2.763743    1.606897    0.696706    0.049938    0.181644    0.195274
H     0.733443    3.212378   -0.263593    0.126800   -0.120070   -0.102874
H     0.694333    2.546703    1.385676   -0.095220    0.081968    0.029706
H    -1.374439    1.601606    0.684962   -0.093392    0.041990   -0.153866
H    -0.932009    1.641167   -1.007773    0.098602   -0.052150   -0.075874
H    -0.681477   -0.838693   -0.036352   -0.202204    0.030776   -0.134170
H     1.939946   -0.925772    0.035108   -0.045138   -0.215104    0.189120
O     1.214431    0.096325    1.950926    0.086486    0.412280   -0.993590
H     0.711122   -0.853894    2.115318   -0.103218    0.002892   -0.826340
15
* Frequency(6) -322.4800
C     1.910373    1.382358    0.019907   -0.001936   -0.168346    0.308366
C     0.700804    2.294732    0.319054    0.009602   -0.042036    0.039968
C    -0.541154    1.435032    0.000266    0.016792   -0.019704   -0.025384
C    -0.027506    0.031319    0.038844   -0.144096   -0.031930    0.048558
C     1.350468   -0.017016    0.234246    0.041822   -0.221848    1.018912
H     2.239361    1.464164   -1.038451   -0.181680   -0.730100    0.081506
H     2.759203    1.590382    0.678951    0.049938    0.181644    0.195274
H     0.721915    3.223295   -0.254240    0.126800   -0.120070   -0.102874
H     0.702990    2.539250    1.382975   -0.095220    0.081968    0.029706
H    -1.365947    1.597788    0.698952   -0.093392    0.041990   -0.153866
H    -0.940974    1.645909   -1.000874    0.098602   -0.052150   -0.075874
H    -0.663092   -0.841491   -0.024153   -0.202204    0.030776   -0.134170
H     1.944050   -0.906214    0.017913   -0.045138   -0.215104    0.189120
O     1.206568    0.058840    2.041265    0.086486    0.412280   -0.993590
H     0.720507   -0.854157    2.190450   -0.103218    0.002892   -0.826340
15
* Frequency(6) -322.4800
C     1.910584    1.400703   -0.013697   -0.001936   -0.168346    0.308366
C     0.699757    2.299312    0.314698    0.009602   -0.042036    0.039968
C    -0.542984    1.437179    0.003033    0.016792   -0.019704   -0.025384
C    -0.011803    0.034799    0.033552   -0.144096   -0.031930    0.048558
C     1.345910    0.007160    0.123212    0.041822   -0.221848    1.018912
H     2.259160    1.543725   -1.047333   -0.181680   -0.730100    0.081506
H     2.753761    1.570587    0.657671    0.049938    0.181644    0.195274
H     0.708097    3.236379   -0.243029    0.126800   -0.120070   -0.102874
H     0.713367    2.530318    1.379738   -0.095220    0.081968    0.029706
H    -1.355770    1.593212    0.715719   -0.093392    0.041990   -0.153866
H    -0.951719    1.651592   -0.992606    0.098602   -0.052150   -0.075874
H    -0.641058   -0.844845   -0.009532   -0.202204    0.030776   -0.134170
H     1.948969   -0.882774   -0.002696   -0.045138   -0.215104    0.189120
O     1.197143    0.013913    2.149540    0.086486    0.412280   -0.993590
H     0.731755   -0.854472    2.280499   -0.103218    0.002892   -0.826340
15
* Frequency(6) -322.4800
C     1.910808    1.420099   -0.049225   -0.001936   -0.168346    0.308366
C     0.698651    2.304156    0.310094    0.009602   -0.042036    0.039968
C    -0.544918    1.439449    0.005957    0.016792   -0.019704   -0.025384
C     0.004799    0.038477    0.027958   -0.144096   -0.031930    0.048558
C     1.341092    0.032720    0.005816    0.041822   -0.221848    1.018912
H     2.280092    1.627845   -1.056723   -0.181680   -0.730100    0.081506
H     2.748007    1.549659    0.635173    0.049938    0.181644    0.195274
H     0.693487    3.250213   -0.231177    0.126800   -0.120070   -0.102874
H     0.724337    2.520874    1.376316   -0.095220    0.081968    0.029706
H    -1.345010    1.588374    0.733447   -0.093392    0.041990   -0.153866
H    -0.963079    1.657600   -0.983864    0.098602   -0.052150   -0.075874
H    -0.617760   -0.848391    0.005926   -0.202204    0.030776   -0.134170
H     1.954169   -0.857990   -0.024486   -0.045138   -0.215104    0.189120
O     1.187179   -0.033589    2.264018    0.086486    0.412280   -0.993590
H     0.743647   -0.854806    2.375707   -0.103218    0.002892   -0.826340
15
* Frequency(6) -322.4800
C     1.911019    1.438444   -0.082829   -0.001936   -0.168346    0.308366
C     0.697604    2.308736    0.305738    0.009602   -0.042036    0.039968
C    -0.546748    1.441596    0.008724    0.016792   -0.019704   -0.025384
C     0.020502    0.041957    0.022666   -0.144096   -0.031930    0.048558
C     1.336534    0.056896   -0.105218    0.041822   -0.221848    1.018912
H     2.299891    1.707406   -1.065605   -0.181680   -0.730100    0.081506
H     2.742565    1.529864    0.613893    0.049938    0.181644    0.195274
H     0.679669    3.263297   -0.219966    0.126800   -0.120070   -0.102874
H     0.734714    2.511942    1.373079   -0.095220    0.081968    0.029706
H    -1.334833    1.583798    0.750214   -0.093392    0.041990   -0.153866
H    -0.973824    1.663283   -0.975596    0.098602   -0.052150   -0.075874
H    -0.595726   -0.851745    0.020547   -0.202204    0.030776   -0.134170
H     1.959088   -0.834550   -0.045095   -0.045138   -0.215104    0.189120
O     1.177754   -0.078516    2.372293    0.086486    0.412280   -0.993590
H     0.754895   -0.855121    2.465756   -0.103218    0.002892   -0.826340
15
* Frequency(6) -322.4800
C     1.911195    1.453751   -0.110866   -0.001936   -0.168346    0.308366
C     0.696731    2.312558    0.302104    0.009602   -0.042036    0.039968
C    -0.548275    1.443388    0.011031    0.016792   -0.019704   -0.025384
C     0.033603    0.044860    0.018251   -0.144096   -0.031930    0.048558
C     1.332732    0.077067   -0.197859    0.041822   -0.221848    1.018912
H     2.316409    1.773788   -1.073016   -0.181680   -0.730100    0.081506
H     2.738025    1.513349    0.596138    0.049938    0.181644    0.195274
H     0.668141    3.274214   -0.210613    0.126800   -0.120070   -0.102874
H     0.743371    2.504489    1.370378   -0.095220    0.081968    0.029706
H    -1.326341    1.579980    0.764204   -0.093392    0.041990   -0.153866
H    -0.982789    1.668025   -0.968697    0.098602   -0.052150   -0.075874
H    -0.577341   -0.854543    0.032746   -0.202204    0.030776   -0.134170
H     1.963192   -0.814992   -0.062290   -0.045138   -0.215104    0.189120
O     1.169891   -0.116001    2.462632    0.086486    0.412280   -0.993590
H     0.764280   -0.855384    2.540888   -0.103218    0.002892   -0.826340
15
* Frequency(6) -322.4800
C     1.911317    1.464359   -0.130299   -0.001936   -0.168346    0.308366
C     0.696126    2.315207    0.299585    0.009602   -0.042036    0.039968
C    -0.549333    1.444630    0.012631    0.016792   -0.019704   -0.025384
C     0.042684    0.046872    0.015191   -0.144096   -0.031930    0.048558
C     1.330096    0.091047   -0.262068    0.041822   -0.221848    1.018912
H     2.327858    1.819797   -1.078152   -0.181680   -0.730100    0.081506
H     2.734878    1.501902    0.583833    0.049938    0.181644    0.195274
H     0.660150    3.281781   -0.204130    0.126800   -0.120070   -0.102874
H     0.749372    2.499324    1.368506   -0.095220    0.081968    0.029706
H    -1.320456    1.577334    0.773900   -0.093392    0.041990   -0.153866
H    -0.989003    1.671311   -0.963916    0.098602   -0.052150   -0.075874
H    -0.564598   -0.856482    0.041201   -0.202204    0.030776   -0.134170
H     1.966037   -0.801437   -0.074208   -0.045138   -0.215104    0.189120
O     1.164440   -0.141982    2.525245    0.086486    0.412280   -0.993590
H     0.770785   -0.855566    2.592962   -0.103218    0.002892   -0.826340
15
* Frequency(6) -322.4800
C     1.911371    1.469121   -0.139020   -0.001936   -0.168346    0.308366
C     0.695855    2.316396    0.298455    0.009602   -0.042036    0.039968
C    -0.549808    1.445187    0.013349    0.016792   -0.019704   -0.025384
C     0.046759    0.047775    0.013818   -0.144096   -0.031930    0.048558
C     1.328913    0.097322   -0.290887    0.041822   -0.221848    1.018912
H     2.332997    1.840447   -1.080458   -0.181680   -0.730100    0.081506
H     2.733465    1.496765    0.578310    0.049938    0.181644    0.195274
H     0.656564    3.285177   -0.201220    0.126800   -0.120070   -0.102874
H     0.752065    2.497005    1.367665   -0.095220    0.081968    0.029706
H    -1.317814    1.576147    0.778252   -0.093392    0.041990   -0.153866
H    -0.991792    1.672786   -0.961770    0.098602   -0.052150   -0.075874
H    -0.558879   -0.857353    0.044996   -0.202204    0.030776   -0.134170
H     1.967313   -0.795353   -0.079557   -0.045138   -0.215104    0.189120
O     1.161994   -0.153643    2.553348    0.086486    0.412280   -0.993590
H     0.773704   -0.855648    2.616334   -0.103218    0.002892   -0.826340
15
* Frequency(6) -322.4800
C     1.911353    1.467519   -0.136087   -0.001936   -0.168346    0.308366
C     0.695946    2.315996    0.298835    0.009602   -0.042036    0.039968
C    -0.549648    1.444999    0.013108    0.016792   -0.019704   -0.025384
C     0.045388    0.047472    0.014280   -0.144096   -0.031930    0.048558
C     1.329311    0.095211   -0.281193    0.041822   -0.221848    1.018912
H     2.331268    1.833501   -1.079682   -0.181680   -0.730100    0.081506
H     2.733941    1.498493    0.580167    0.049938    0.181644    0.195274
H     0.657770    3.284035   -0.202199    0.126800   -0.120070   -0.102874
H     0.751159    2.497785    1.367948   -0.095220    0.081968    0.029706
H    -1.318703    1.576546    0.776788   -0.093392    0.041990   -0.153866
H    -0.990854    1.672290   -0.962492    0.098602   -0.052150   -0.075874
H    -0.560803   -0.857060    0.043720   -0.202204    0.030776   -0.134170
H     1.966884   -0.797399   -0.077758   -0.045138   -0.215104    0.189120
O     1.162817   -0.149721    2.543894    0.086486    0.412280   -0.993590
H     0.772722   -0.855620    2.608472   -0.103218    0.002892   -0.826340
15
* Frequency(6) -322.4800
C     1.911263    1.459728   -0.121815   -0.001936   -0.168346    0.308366
C     0.696391    2.314051    0.300685    0.009602   -0.042036    0.039968
C    -0.548871    1.444087    0.011933    0.016792   -0.019704   -0.025384
C     0.038719    0.045994    0.016527   -0.144096   -0.031930    0.048558
C     1.331247    0.084943   -0.234036    0.041822   -0.221848    1.018912
H     2.322860    1.799710   -1.075910   -0.181680   -0.730100    0.081506
H     2.736252    1.506900    0.589205    0.049938    0.181644    0.195274
H     0.663639    3.278478   -0.206960    0.126800   -0.120070   -0.102874
H     0.746752    2.501579    1.369323   -0.095220    0.081968    0.029706
H    -1.323025    1.578490    0.769667   -0.093392    0.041990   -0.153866
H    -0.986290    1.669876   -0.966003    0.098602   -0.052150   -0.075874
H    -0.570162   -0.855636    0.037510   -0.202204    0.030776   -0.134170
H     1.964795   -0.807355   -0.069005   -0.045138   -0.215104    0.189120
O     1.166820   -0.130639    2.497909    0.086486    0.412280   -0.993590
H     0.767945   -0.855486    2.570227   -0.103218    0.002892   -0.826340
15
* Frequency(6) -322.4800
C     1.911112    1.446591   -0.097752   -0.001936   -0.168346    0.308366
C     0.697140    2.310771    0.303804    0.009602   -0.042036    0.039968
C    -0.547561    1.442550    0.009952    0.016792   -0.019704   -0.025384
C     0.027475    0.043502    0.020316   -0.144096   -0.031930    0.048558
C     1.334510    0.067632   -0.154526    0.041822   -0.221848    1.018912
H     2.308683    1.742738   -1.069550   -0.181680   -0.730100    0.081506
H     2.740149    1.521074    0.604443    0.049938    0.181644    0.195274
H     0.673533    3.269108   -0.214988    0.126800   -0.120070   -0.102874
H     0.739322    2.507975    1.371641   -0.095220    0.081968    0.029706
H    -1.330313    1.581766    0.757660   -0.093392    0.041990   -0.153866
H    -0.978596    1.665807   -0.971924    0.098602   -0.052150   -0.075874
H    -0.585940   -0.853234    0.027040   -0.202204    0.030776   -0.134170
H     1.961273   -0.824140   -0.054247   -0.045138   -0.215104    0.189120
O     1.173569   -0.098468    2.420375    0.086486    0.412280   -0.993590
H     0.759890   -0.855261    2.505745   -0.103218    0.002892   -0.826340
15
* Frequency(6) -322.4800
C     1.910916    1.429533   -0.066505   -0.001936   -0.168346    0.308366
C     0.698113    2.306511    0.307854    0.009602   -0.042036    0.039968
C    -0.545859    1.440553    0.007380    0.016792   -0.019704   -0.025384
C     0.012874    0.040267    0.025237   -0.144096   -0.031930    0.048558
C     1.338748    0.045152   -0.051280    0.041822   -0.221848    1.018912
H     2.290273    1.668757   -1.061291   -0.181680   -0.730100    0.081506
H     2.745209    1.539480    0.624230    0.049938    0.181644    0.195274
H     0.686382    3.256941   -0.225412    0.126800   -0.120070   -0.102874
H     0.729673    2.516281    1.374651   -0.095220    0.081968    0.029706
H    -1.339776    1.586021    0.742069   -0.093392    0.041990   -0.153866
H    -0.968605    1.660523   -0.979612    0.098602   -0.052150   -0.075874
H    -0.606430   -0.850116    0.013445   -0.202204    0.030776   -0.134170
H     1.956699   -0.845937   -0.035084   -0.045138   -0.215104    0.189120
O     1.182332   -0.056691    2.319695    0.086486    0.412280   -0.993590
H     0.749431   -0.854968    2.422012   -0.103218    0.002892   -0.826340
15
* Frequency(6) -322.4800
C     1.910696    1.410401   -0.031461   -0.001936   -0.168346    0.308366
C     0.699204    2.301734    0.312396    0.009602   -0.042036    0.039968
C    -0.543951    1.438314    0.004495    0.016792   -0.019704   -0.025384
C    -0.003502    0.036638    0.030755   -0.144096   -0.031930    0.048558
C     1.343501    0.019940    0.064514    0.041822   -0.221848    1.018912
H     2.269626    1.585785   -1.052028   -0.181680   -0.730100    0.081506
H     2.750884    1.560123    0.646422    0.049938    0.181644    0.195274
H     0.700792    3.243296   -0.237103    0.126800   -0.120070   -0.102874
H     0.718852    2.525596    1.378027   -0.095220    0.081968    0.029706
H    -1.350390    1.590793    0.724583   -0.093392    0.041990   -0.153866
H    -0.957399    1.654596   -0.988235    0.098602   -0.052150   -0.075874
H    -0.629409   -0.846618   -0.001803   -0.202204    0.030776   -0.134170
H     1.951569   -0.870382   -0.013591   -0.045138   -0.215104    0.189120
O     1.192161   -0.009838    2.206779    0.086486    0.412280   -0.993590
H     0.737701   -0.854639    2.328103   -0.103218    0.002892   -0.826340
