nohup: ignoring input

                                 *****************
                                 * O   R   C   A *
                                 *****************

                                            #,                                       
                                            ###                                      
                                            ####                                     
                                            #####                                    
                                            ######                                   
                                           ########,                                 
                                     ,,################,,,,,                         
                               ,,#################################,,                 
                          ,,##########################################,,             
                       ,#########################################, ''#####,          
                    ,#############################################,,   '####,        
                  ,##################################################,,,,####,       
                ,###########''''           ''''###############################       
              ,#####''   ,,,,##########,,,,          '''####'''          '####       
            ,##' ,,,,###########################,,,                        '##       
           ' ,,###''''                  '''############,,,                           
         ,,##''                                '''############,,,,        ,,,,,,###''
      ,#''                                            '''#######################'''  
     '                                                          ''''####''''         
             ,#######,   #######,   ,#######,      ##                                
            ,#'     '#,  ##    ##  ,#'     '#,    #''#        ,####,    ,#,          
            ##       ##  ##   ,#'  ##            #'  '#       #'       ,# #          
            ##       ##  #######   ##           ,######,      #####,      #          
            '#,     ,#'  ##    ##  '#,     ,#' ,#      #,     #,   #      #          
             '#######'   ##     ##  '#######'  #'      '#     '####' #    #          



                #########################################################
                #                        -***-                          #
                #          Department of theory and spectroscopy        #
                #                                                       #
                #                      Frank Neese                      #
                #                                                       #
                #     Directorship, Architecture, Infrastructure        #
                #                    SHARK, DRIVERS                     #
                #        Core code/Algorithms in most modules           #
                #                                                       #
                #        Max Planck Institute fuer Kohlenforschung      #
                #                Kaiser Wilhelm Platz 1                 #
                #                 D-45470 Muelheim/Ruhr                 #
                #                      Germany                          #
                #                                                       #
                #                  All rights reserved                  #
                #                        -***-                          #
                #########################################################


                         Program Version 6.1.0  -  RELEASE   -
                                (GIT: $679e74b$)
                          ($2025-06-10 18:02:51 +0200$)


 With contributions from (in alphabetic order):
[Max-Planck-Institut fuer Kohlenforschung]                               
  Daniel Aravena         : Magnetic Suceptibility                        
  Michael Atanasov       : Ab Initio Ligand Field Theory (pilot matlab implementation)
  Alexander A. Auer      : GIAO ZORA, VPT2 properties, NMR spectrum      
  Ute Becker             : All parallelization in ORCA, NUMFREQ, NUMCALC 
  Giovanni Bistoni       : ED, misc. LED, open-shell LED, HFLD           
  Dmytro Bykov           : pre 5.0 version of the SCF Hessian            
  Marcos Casanova-Páez   : Triplet and SCS-CIS(D). UHF-(DLPNO)-IP/EA/STEOM-CCSD. UHF-CVS-IP/STEOM-CCSD   
  Vijay G. Chilkuri      : MRCI spin determinant printing, contributions to CSF-ICE 
  Pauline Colinet        : FMM embedding                                 
  Dipayan Datta          : RHF DLPNO-CCSD density                        
  Achintya Kumar Dutta   : EOM-CC, STEOM-CC                              
  Nicolas Foglia         : Exact transition moments, OPA infrastructure, MCD improvements    
  Dmitry Ganyushin       : Spin-Orbit,Spin-Spin,Magnetic field MRCI      
  Miquel Garcia-Rates    : C-PCM and meta-GGA Hessian, CCSD/C-PCM, Gaussian charge scheme 
  Tiago L. C. Gouveia    : GS-ROHF, GS-ROCIS                             
  Yang Guo               : DLPNO-NEVPT2, F12-NEVPT2, CIM, IAO-localization        
  Andreas Hansen         : Spin unrestricted coupled pair/coupled cluster methods 
  Ingolf Harden          : AUTO-CI MPn and infrastructure                
  Benjamin Helmich-Paris : MC-RPA, TRAH-(SCF,CASSCF), AVAS, COSX integrals, SCF dyn. polar., MC-PDFT, srDFT 
  Lee Huntington         : MR-EOM, pCC                                   
  Robert Izsak           : Overlap fitted RIJCOSX, COSX-SCS-MP3, EOM     
  Riya Kayal             : Wick's Theorem for AUTO-CI, AUTO-CI UHF-CCSDT 
  Emily Kempfer          : AUTO-CI RHF CISDT and CCSDT, approximate NEVPT4
  Christian Kollmar      : KDIIS, OOCD, Brueckner-CCSD(T), CCSD density, CASPT2, CASPT2-K, improved NEVPT2 
  Axel Koslowski         : Symmetry handling                             
  Simone Kossmann        : meta-GGA functionals, TD-DFT gradient, OOMP2, (MP2 Hessian; deprecated post 5.0) 
  Lucas Lang             : DCDCAS, Hyperfine gauge corrections, ICE-SOC+SSC
  Marvin Lechner         : AUTO-CI (C++ implementation), FIC-MRCC        
  Spencer Leger          : CASSCF response                               
  Dagmar Lenk            : GEPOL surface, SMD, ORCA-2-JSON               
  Dimitrios Liakos       : Extrapolation schemes; Compound Job, Property file
  Dimitrios Manganas     : Further ROCIS development; embedding schemes. LFT, Crystal Embedding 
  Dimitrios Pantazis     : SARC Basis sets                               
  Anastasios Papadopoulos: AUTO-CI, single reference methods and gradients 
  Taras Petrenko         : pre 6.0 DFT Hessian and TD-DFT gradient,  ECA, NRVS 
  Petra Pikulova         : Analytic Raman intensities                    
  Peter Pinski           : DLPNO-MP2, DLPNO-MP2 Gradient                 
  Shashank Vittal Rao    : ES-AILFT, MagRelax                            
  Christoph Reimann      : Effective Core Potentials                     
  Marius Retegan         : Local ZFS, SOC                                
  Christoph Riplinger    : Optimizer, TS searches, QM/MM, DLPNO-CCSD(T), (RO)-DLPNO pert. Triples 
  Michael Roemelt        : Original ROCIS implementation, recursive CI coupling coefficients
  Masaaki Saitow         : Open-shell DLPNO-CCSD energy and density      
  Barbara Sandhoefer     : DKH picture change effects                    
  Yorick L. A. Schmerwitz: GMF and freeze-and-release deltaSCF, NEB S-IDPP initial path                    
  Kantharuban Sivalingam : CASSCF convergence/infrastructure, NEVPT2, NEVPT3, NEVPT4(SD), FIC-MRCI and CEPA variants
  Bernardo de Souza      : ESD, SOC TD-DFT                               
  Georgi L. Stoychev     : AutoAux, RI-MP2 NMR, DLPNO-MP2 response, X2C  
  Van Anh Tran           : RI-MP2 g-tensors                              
  Willem Van den Heuvel  : Paramagnetic NMR                              
  Zikuan Wang            : NOTCH, Electric field optimization            
  Frank Wennmohs         : Technical directorship and infrastructure     
  Hang Xu                : AUTO-CI-Response properties                   
                                                                         
[FACCTs GmbH]                                                            
  Markus Bursch, Nicolas Foglia, Miquel Garcia-Rates, Ingolf Harden, Hagen Neugebauer, Anastasios Papadopoulos, 
  Christoph Riplinger, Bernardo de Souza, Georgi L. Stoychev                                                    
                                                                 
  APM, various basis sets, CI-OPT, improved COSX, DLPNO-Multilevel,           
  DOCKER, DRACO, updates on ESD, Fragmentator, GOAT, IRC, LR-CPCM, L-BFGS, MBIS, meta-GGA TD-DFT gradient, ML-optimized integration grids, 
  MM, NACMEs, nearIR, NEB, NEB-TS, NL-DFT gradient (VV10), 2- and 3-layer-ONIOM, interface openCOSMO-RS, QMMM,   
  Crystal-QMMM, RESP, rigid body optimization, SF, symmetry and pop. for TD-DFT, various functionals, SOLVATOR                                   
                                                                         
[Other institutions]                                                     
  V. Asgeirsson          : NEB                                           
  Christoph Bannwarth    : sTDA-DFT, sTD-DFT, PBEh-3c, B97-3c, D3        
  Giovanni Bistoni       : ETS/NOCV, ADLD/ADEX, COVALED                  
  Martin Brehm           : Molecular dynamics                            
  Ronald Cardenas        : ETS/NOCV                                      
  Martina Colucci        : COVALED                                       
  Sebastian Ehlert       : rSCAN, r2SCAN, r2SCAN-3c, D4, dhf basis sets  
  Marvin Friede          : D4 for Fr, Ra, Ac-Lr                          
  Lars Goerigk           : TD-DFT with DH, B97 family of functionals     
  Stefan Grimme          : VdW corrections, initial TS optimization, DFT functionals, gCP, sTDA/sTD-DF 
  Waldemar Hujo          : DFT-NL                                        
  H. Jonsson             : NEB                                           
  Holger Kruse           : gCP                                           
  Marcel Mueller         : wB97X-3c, vDZP basis set                      
  Hagen Neugebauer       : wr2SCAN, Native XTB                           
  Gianluca Regni         : ADLD/ADEX                                     
  Tobias Risthaus        : pre 6.0 range-separated hybrid DFT and stability analysis
  Lukas Wittmann         : regularized MP2, r2SCAN double-hybrids, wr2SCAN        
                                                                         
We gratefully acknowledge several colleagues who have allowed us to      
interface, adapt or use parts of their codes:                            
  Ed Valeev, F. Pavosevic, A. Kumar             : LibInt (2-el integral package), F12 methods 
  Garnet Chan, S. Sharma, J. Yang, R. Olivares  : DMRG                   
  Ulf Ekstrom                                   : XCFun DFT Library      
  Mihaly Kallay                                 : mrcc  (arbitrary order and MRCC methods)
  Frank Weinhold                                : gennbo (NPA and NBO analysis)           
  Simon Mueller                                 : openCOSMO-RS                            
  Christopher J. Cramer and Donald G. Truhlar   : smd solvation model                     
  S Lehtola, MJT Oliveira, MAL Marques          : LibXC Library                           
  Liviu Ungur et al                             : ANISO software                          


 Your calculation uses the libint2 library for the computation of 2-el integrals
 For citations please refer to: http://libint.valeyev.net

 Your ORCA version has been built with support for libXC version: 7.0.0
 For citations please refer to: https://libxc.gitlab.io

 This ORCA versions uses:
   CBLAS   interface :  Fast vector & matrix operations
   LAPACKE interface :  Fast linear algebra routines
   SCALAPACK package :  Parallel linear algebra routines
   Shared memory     :  Shared parallel matrices
   BLAS/LAPACK       :  OpenBLAS 0.3.29  USE64BITINT DYNAMIC_ARCH NO_AFFINITY SkylakeX SINGLE_THREADED
        Core in use  :  SkylakeX
   Copyright (c) 2011-2014, The OpenBLAS Project


  ***********************************
  * Starting time: Wed Aug 20 15:51:20 2025
  * Host name:     csed-0008
  * Process ID:    1642023
  * Working dir.:  /gpfs/fs1/home/copan/proj/cyclopentene-oh-addition-project/calc/cyC5e1/run-revdsd
  ***********************************

NOTE: MaxCore=10000 MB was set to SCF,MP2,MDCI,CIPSI,MRCI,RASCI and CIS
      => If you want to overwrite this, your respective input block should be placed after the MaxCore statement


***************************************
The coordinates will be read from file: guess.xyz
***************************************


Your calculation utilizes the atom-pairwise dispersion correction
based on EEQ partial charges (D4)


Warning: RI is on but no J-basis has been assigned. Assigning Def2/J (nothing to worry about!)
================================================================================

----- Orbital basis set information -----
Your calculation utilizes the basis: def2-TZVPP
   F. Weigend and R. Ahlrichs, Phys. Chem. Chem. Phys. 7, 3297 (2005).

----- AuxJ basis set information -----
Your calculation utilizes the auxiliary basis: def2/J
   H-Rn: F. Weigend, Phys. Chem. Chem. Phys. 8, 1057 (2006).
   Fr-Lr: K. Eichkorn, F. Weigend, O. Treutler, R. Ahlrichs; Theor. Chem. Acc. 97, 119 (1997).

----- AuxC basis set information -----
Your calculation utilizes the auxiliary basis: def2-TZVPP/C
  H-La, Hf-Rn : A. Hellweg, C. Hattig, S. Hofener and W. Klopper, Theor. Chem. Acc. 117, 587 (2007).
        Ce-Lu : J. Chmela and M. E. Harding, Mol. Phys. (2018).

================================================================================
                                        WARNINGS
                       Please study these warnings very carefully!
================================================================================


WARNING: The frozen-core approximation for MP2-gradient calculations is turned on by default.

WARNING: Geometry Optimization
  ===> : Switching off AutoStart
         For restart on a previous wavefunction, please use MOREAD

WARNING: The frozen-core approximation is turned on by default for 
         the MP2 part of double-hybrid DFT.

================================================================================
                                       INPUT FILE
================================================================================
NAME = opt.inp
|  1> % MaxCore 10000
|  2> ! PAL8
|  3> ! REVDSD-PBEP86-D4/2021 def2-TZVPP def2-TZVPP/c
|  4> ! OPT
|  5> * xyzfile 0 1 guess.xyz
|  6> 
|  7>                          ****END OF INPUT****
================================================================================

                       *****************************
                       * Geometry Optimization Run *
                       *****************************

Geometry optimization settings:
Update method            Update   .... BFGS
Choice of coordinates    CoordSys .... (2022) Redundant Internals
Initial Hessian          InHess   .... Almloef's Model
Max. no of cycles        MaxIter  .... 50

Convergence Tolerances:
Energy Change            TolE     ....  5.0000e-06 Eh
Max. Gradient            TolMAXG  ....  3.0000e-04 Eh/bohr
RMS Gradient             TolRMSG  ....  1.0000e-04 Eh/bohr
Max. Displacement        TolMAXD  ....  4.0000e-03 bohr
RMS Displacement         TolRMSD  ....  2.0000e-03 bohr
Strict Convergence                .... False

------------------------------------------------------------------------------
                        ORCA OPTIMIZATION COORDINATE SETUP
------------------------------------------------------------------------------

The optimization will be done in redundant internal coordinates (2022)
Making redundant internal coordinates   ...  (2022 redundants) done
Evaluating the initial hessian          ...  (Almloef) done
Evaluating the coordinates              ...  done
Calculating the B-matrix                .... done
Calculating the G-matrix                .... done
The number of degrees of freedom        ....   63

    -----------------------------------------------------------------
                    Redundant Internal Coordinates


    -----------------------------------------------------------------
         Definition                    Initial Value    Approx d2E/dq
    -----------------------------------------------------------------
      1. B(C   1,C   0)                  1.5340         0.368114   
      2. B(C   2,C   1)                  1.5343         0.367682   
      3. B(C   3,C   2)                  1.5018         0.414338   
      4. B(C   4,C   3)                  1.3274         0.786363   
      5. B(C   4,C   0)                  1.5010         0.415630   
      6. B(H   5,C   0)                  1.0932         0.355907   
      7. B(H   6,C   0)                  1.0898         0.360321   
      8. B(H   7,C   1)                  1.0882         0.362496   
      9. B(H   8,C   1)                  1.0901         0.359921   
     10. B(H   9,C   2)                  1.0901         0.359940   
     11. B(H  10,C   2)                  1.0932         0.355839   
     12. B(H  11,C   3)                  1.0823         0.370365   
     13. B(H  12,C   4)                  1.0824         0.370295   
     14. A(C   1,C   0,H   6)          112.5419         0.323568   
     15. A(H   5,C   0,H   6)          106.7068         0.290333   
     16. A(C   1,C   0,H   5)          112.0516         0.322915   
     17. A(C   1,C   0,C   4)          103.0482         0.369121   
     18. A(C   4,C   0,H   5)          109.6794         0.329432   
     19. A(C   4,C   0,H   6)          112.8939         0.330103   
     20. A(C   2,C   1,H   8)          109.4196         0.323447   
     21. A(C   2,C   1,H   7)          112.6755         0.323826   
     22. A(C   0,C   1,H   7)          112.7420         0.323888   
     23. A(C   0,C   1,C   2)          105.5839         0.361456   
     24. A(H   7,C   1,H   8)          107.1988         0.291120   
     25. A(C   0,C   1,H   8)          109.1772         0.323509   
     26. A(C   1,C   2,C   3)          103.0517         0.368849   
     27. A(H   9,C   2,H  10)          106.5373         0.290276   
     28. A(C   1,C   2,H  10)          111.9766         0.322843   
     29. A(C   3,C   2,H   9)          113.0788         0.329876   
     30. A(C   1,C   2,H   9)          112.6482         0.323450   
     31. A(C   3,C   2,H  10)          109.6360         0.329252   
     32. A(C   4,C   3,H  11)          124.7625         0.369274   
     33. A(C   2,C   3,H  11)          123.3754         0.331437   
     34. A(C   2,C   3,C   4)          111.7614         0.421391   
     35. A(C   3,C   4,H  12)          124.8186         0.369262   
     36. A(C   0,C   4,H  12)          123.2096         0.331598   
     37. A(C   0,C   4,C   3)          111.8892         0.421626   
     38. D(C   2,C   1,C   0,C   4)    -20.5007         0.010839   
     39. D(C   2,C   1,C   0,H   5)     97.3288         0.010839   
     40. D(H   7,C   1,C   0,H   5)    -26.0979         0.010839   
     41. D(H   7,C   1,C   0,H   6)     94.1641         0.010839   
     42. D(H   7,C   1,C   0,C   4)   -143.9274         0.010839   
     43. D(C   2,C   1,C   0,H   6)   -142.4092         0.010839   
     44. D(C   3,C   2,C   1,C   0)     20.5933         0.010816   
     45. D(H   9,C   2,C   1,H   8)     25.4020         0.010816   
     46. D(H   9,C   2,C   1,H   7)    -93.7470         0.010816   
     47. D(H   9,C   2,C   1,C   0)    142.7842         0.010816   
     48. D(C   3,C   2,C   1,H   8)    -96.7888         0.010816   
     49. D(C   3,C   2,C   1,H   7)    144.0622         0.010816   
     50. D(C   4,C   3,C   2,H  10)    106.0322         0.012705   
     51. D(C   4,C   3,C   2,H   9)   -135.2475         0.012705   
     52. D(C   4,C   3,C   2,C   1)    -13.3467         0.012705   
     53. D(H  11,C   3,C   2,H   9)     48.2471         0.012705   
     54. D(H  11,C   3,C   2,C   1)    170.1479         0.012705   
     55. D(H  12,C   4,C   3,H  11)     -0.1606         0.044521   
     56. D(H  12,C   4,C   3,C   2)   -176.6082         0.044521   
     57. D(C   0,C   4,C   3,H  11)    176.6177         0.044521   
     58. D(C   0,C   4,C   3,C   2)      0.1701         0.044521   
     59. D(H  12,C   4,C   0,H   5)     70.4402         0.012782   
     60. D(H  12,C   4,C   0,C   1)   -170.0756         0.012782   
     61. D(C   3,C   4,C   0,H   6)    134.7563         0.012782   
     62. D(C   3,C   4,C   0,H   5)   -106.3986         0.012782   
     63. D(C   3,C   4,C   0,C   1)     13.0856         0.012782   
    -----------------------------------------------------------------

Number of atoms                         .... 13
Number of degrees of freedom            .... 63


         *************************************************************
         *                GEOMETRY OPTIMIZATION CYCLE   1            *
         *************************************************************
---------------------------------
CARTESIAN COORDINATES (ANGSTROEM)
---------------------------------
  C      1.887066    1.416024   -0.006601
  C      0.664001    2.293339    0.289395
  C     -0.556688    1.414176   -0.012521
  C      0.002142    0.022015    0.058376
  C      1.329534    0.024011    0.059293
  H      2.294372    1.602636   -1.003766
  H      2.700328    1.580894    0.699910
  H      0.664002    3.220892   -0.279651
  H      0.664018    2.563154    1.345612
  H     -1.377291    1.581298    0.685364
  H     -0.956581    1.599011   -1.013068
  H     -0.613643   -0.868027    0.047792
  H      1.948904   -0.863637    0.052059

----------------------------
CARTESIAN COORDINATES (A.U.)
----------------------------
  NO LB      ZA    FRAG     MASS         X           Y           Z
   0 C     6.0000    0    12.011    3.566038    2.675897   -0.012474
   1 C     6.0000    0    12.011    1.254781    4.333783    0.546876
   2 C     6.0000    0    12.011   -1.051987    2.672405   -0.023661
   3 C     6.0000    0    12.011    0.004049    0.041602    0.110315
   4 C     6.0000    0    12.011    2.512456    0.045374    0.112048
   5 H     1.0000    0     1.008    4.335735    3.028544   -1.896842
   6 H     1.0000    0     1.008    5.102880    2.987457    1.322639
   7 H     1.0000    0     1.008    1.254782    6.086605   -0.528464
   8 H     1.0000    0     1.008    1.254812    4.843658    2.542837
   9 H     1.0000    0     1.008   -2.602702    2.988219    1.295151
  10 H     1.0000    0     1.008   -1.807676    3.021692   -1.914422
  11 H     1.0000    0     1.008   -1.159616   -1.640334    0.090313
  12 H     1.0000    0     1.008    3.682895   -1.632038    0.098378

--------------------------------
INTERNAL COORDINATES (ANGSTROEM)
--------------------------------
 C      0   0   0     0.000000000000     0.00000000     0.00000000
 C      1   0   0     1.534008640182     0.00000000     0.00000000
 C      2   1   0     1.534328008629   105.58390794     0.00000000
 C      3   2   1     1.501808862812   103.05172775    20.59331786
 C      4   3   2     1.327393756542   111.76144396   346.65329439
 H      1   2   3     1.093188299432   112.05158682    97.32881509
 H      1   2   3     1.089832615940   112.54190332   217.59082741
 H      2   1   3     1.088194743755   112.74199354   236.57328834
 H      2   1   3     1.090134990446   109.17720125   117.54543320
 H      3   2   1     1.090120654178   112.64818508   142.78415950
 H      3   2   1     1.093239885002   111.97663795   262.84844560
 H      4   3   2     1.082348692410   123.37538996   170.14788818
 H      5   4   3     1.082400136323   124.81864121   183.39177499

---------------------------
INTERNAL COORDINATES (A.U.)
---------------------------
 C      0   0   0     0.000000000000     0.00000000     0.00000000
 C      1   0   0     2.898856217013     0.00000000     0.00000000
 C      2   1   0     2.899459735914   105.58390794     0.00000000
 C      3   2   1     2.838007456211   103.05172775    20.59331786
 C      4   3   2     2.508410671740   111.76144396   346.65329439
 H      1   2   3     2.065826498734   112.05158682    97.32881509
 H      1   2   3     2.059485175941   112.54190332   217.59082741
 H      2   1   3     2.056390046069   112.74199354   236.57328834
 H      2   1   3     2.060056580947   109.17720125   117.54543320
 H      3   2   1     2.060029489328   112.64818508   142.78415950
 H      3   2   1     2.065923981333   111.97663795   262.84844560
 H      4   3   2     2.045342610062   123.37538996   170.14788818
 H      5   4   3     2.045439824970   124.81864121   183.39177499

---------------------
BASIS SET INFORMATION
---------------------
There are 2 groups of distinct atoms

 Group   1 Type C   : 11s6p2d1f contracted to 5s3p2d1f pattern {62111/411/11/1}
 Group   2 Type H   : 5s2p1d contracted to 3s2p1d pattern {311/11/1}

Atom   0C    basis set group =>   1
Atom   1C    basis set group =>   1
Atom   2C    basis set group =>   1
Atom   3C    basis set group =>   1
Atom   4C    basis set group =>   1
Atom   5H    basis set group =>   2
Atom   6H    basis set group =>   2
Atom   7H    basis set group =>   2
Atom   8H    basis set group =>   2
Atom   9H    basis set group =>   2
Atom  10H    basis set group =>   2
Atom  11H    basis set group =>   2
Atom  12H    basis set group =>   2
---------------------------------
AUXILIARY/J BASIS SET INFORMATION
---------------------------------
There are 2 groups of distinct atoms

 Group   1 Type C   : 12s5p4d2f1g contracted to 6s4p3d1f1g pattern {711111/2111/211/2/1}
 Group   2 Type H   : 5s2p1d contracted to 3s1p1d pattern {311/2/1}

Atom   0C    basis set group =>   1
Atom   1C    basis set group =>   1
Atom   2C    basis set group =>   1
Atom   3C    basis set group =>   1
Atom   4C    basis set group =>   1
Atom   5H    basis set group =>   2
Atom   6H    basis set group =>   2
Atom   7H    basis set group =>   2
Atom   8H    basis set group =>   2
Atom   9H    basis set group =>   2
Atom  10H    basis set group =>   2
Atom  11H    basis set group =>   2
Atom  12H    basis set group =>   2
---------------------------------
AUXILIARY/C BASIS SET INFORMATION
---------------------------------
There are 2 groups of distinct atoms

 Group   1 Type C   : 8s6p5d3f1g contracted to 8s6p4d3f1g pattern {11111111/111111/2111/111/1}
 Group   2 Type H   : 4s3p2d1f contracted to 4s3p2d1f pattern {1111/111/11/1}

Atom   0C    basis set group =>   1
Atom   1C    basis set group =>   1
Atom   2C    basis set group =>   1
Atom   3C    basis set group =>   1
Atom   4C    basis set group =>   1
Atom   5H    basis set group =>   2
Atom   6H    basis set group =>   2
Atom   7H    basis set group =>   2
Atom   8H    basis set group =>   2
Atom   9H    basis set group =>   2
Atom  10H    basis set group =>   2
Atom  11H    basis set group =>   2
Atom  12H    basis set group =>   2


           ************************************************************
           *        Program running with 8 parallel MPI-processes     *
           *              working on a common directory               *
           ************************************************************
------------------------------------------------------------------------------
                             ORCA STARTUP CALCULATIONS
                           -- RI-GTO INTEGRALS CHOSEN --
------------------------------------------------------------------------------
------------------------------------------------------------------------------
                   ___                                                        
                  /   \      - P O W E R E D   B Y -                         
                 /     \                                                     
                 |  |  |   _    _      __       _____    __    __             
                 |  |  |  | |  | |    /  \     |  _  \  |  |  /  |          
                  \  \/   | |  | |   /    \    | | | |  |  | /  /          
                 / \  \   | |__| |  /  /\  \   | |_| |  |  |/  /          
                |  |  |   |  __  | /  /__\  \  |    /   |      \           
                |  |  |   | |  | | |   __   |  |    \   |  |\   \          
                \     /   | |  | | |  |  |  |  | |\  \  |  | \   \       
                 \___/    |_|  |_| |__|  |__|  |_| \__\ |__|  \__/        
                                                                              
                      - O R C A' S   B I G   F R I E N D -                    
                                      &                                       
                       - I N T E G R A L  F E E D E R -                       
                                                                              
 v1 FN, 2020, v2 2021, v3 2022-2024                                           
------------------------------------------------------------------------------


----------------------
SHARK INTEGRAL PACKAGE
----------------------

Number of atoms                             ...     13
Number of basis functions                   ...    267
Number of shells                            ...    103
Maximum angular momentum                    ...      3
Integral batch strategy                     ... SHARK/LIBINT Hybrid
RI-J (if used) integral strategy            ... SPLIT-RIJ (Revised 2003 algorithm where possible)
Printlevel                                  ...      1
Contraction scheme used                     ... SEGMENTED contraction
Prescreening option                         ... SCHWARTZ
   Thresh                                   ... 2.500e-11
   Tcut                                     ... 2.500e-12
   Tpresel                                  ... 2.500e-12 
Coulomb Range Separation                    ... NOT USED
Exchange Range Separation                   ... NOT USED
Multipole approximations                    ... NOT USED
Finite Nucleus Model                        ... NOT USED
CABS basis                                  ... NOT available
Auxiliary Coulomb fitting basis             ... AVAILABLE
   # of basis functions in Aux-J            ...    333
   # of shells in Aux-J                     ...    115
   Maximum angular momentum in Aux-J        ...      4
Auxiliary J/K fitting basis                 ... NOT available
Auxiliary Correlation fitting basis         ... AVAILABLE
   # of basis functions in Aux-C            ...    620
   # of shells in Aux-C                     ...    190
   Maximum angular momentum in Aux-C        ...      4
Auxiliary 'external' fitting basis          ... NOT available

Checking pre-screening integrals            ... done (  0.0 sec) Dimension = 103
   => SHARK Basis and OBASIS are compatible. Storing Pre-screening
Shell pair information
Shell pair cut-off parameter TPreSel        ...   2.5e-12
Total number of shell pairs                 ...      5356
Shell pairs after pre-screening             ...      5161
Total number of primitive shell pairs       ...     13664
Primitive shell pairs kept                  ...     11027
          la=0 lb=0:   1161 shell pairs
          la=1 lb=0:   1467 shell pairs
          la=1 lb=1:    485 shell pairs
          la=2 lb=0:    838 shell pairs
          la=2 lb=1:    536 shell pairs
          la=2 lb=2:    169 shell pairs
          la=3 lb=0:    245 shell pairs
          la=3 lb=1:    155 shell pairs
          la=3 lb=2:     90 shell pairs
          la=3 lb=3:     15 shell pairs

Checking whether 4 symmetric matrices of dimension 267 fit in memory
:Max Core in MB      =  10000.00
 MB in use           =      9.80
 MB left             =   9990.20
 MB needed           =      1.09
 Data fit in memory  = YES
Calculating RI/J V-Matrix + Cholesky decomp.... done (  0.0 sec)
Calculating RI/C V-Matrix + Cholesky decomp.... done (  0.0 sec)
Calculating Nuclear repulsion               ... done (  0.0 sec) ENN=    172.330842365204 Eh

Diagonalization of the overlap matrix:
Smallest eigenvalue                        ... 8.577e-05
Time for diagonalization                   ...    0.007 sec
Threshold for overlap eigenvalues          ... 1.000e-07
Number of eigenvalues below threshold      ... 0
Time for construction of square roots      ...    0.004 sec
Total time needed                          ...    0.012 sec

-------------------
DFT GRID GENERATION
-------------------

General Integration Accuracy     IntAcc      ... 4.388
Radial Grid Type                 RadialGrid  ... OptM3 with GC (2021)
Angular Grid (max. ang.)         AngularGrid ... 4 (Lebedev-302)
Angular grid pruning method      GridPruning ... 4 (adaptive)
Weight generation scheme         WeightScheme... mBecke (2022)
Basis function cutoff            BFCut       ... 1.0000e-11
Integration weight cutoff        WCut        ... 1.0000e-14
Partially contracted basis set               ... off
Rotationally invariant grid construction     ... off
Angular grids for H and He will be reduced by one unit

Total number of grid points                  ...    55830
Total number of batches                      ...      879
Average number of points per batch           ...       63
Average number of grid points per atom       ...     4295

--------------------
COSX GRID GENERATION
--------------------

GRIDX 1
-------
General Integration Accuracy     IntAcc      ... 3.816
Radial Grid Type                 RadialGrid  ... OptM3 with GC (2021)
Angular Grid (max. ang.)         AngularGrid ... 1 (Lebedev-50)
Angular grid pruning method      GridPruning ... 4 (adaptive)
Weight generation scheme         WeightScheme... mBecke (2022)
Basis function cutoff            BFCut       ... 1.0000e-11
Integration weight cutoff        WCut        ... 1.0000e-14
Partially contracted basis set               ... on
Rotationally invariant grid construction     ... off
Angular grids for H and He will be reduced by one unit

Total number of grid points                  ...     7205
Total number of batches                      ...       65
Average number of points per batch           ...      110
Average number of grid points per atom       ...      554
UseSFitting                                  ... on

GRIDX 2
-------
General Integration Accuracy     IntAcc      ... 4.020
Radial Grid Type                 RadialGrid  ... OptM3 with GC (2021)
Angular Grid (max. ang.)         AngularGrid ... 2 (Lebedev-110)
Angular grid pruning method      GridPruning ... 4 (adaptive)
Weight generation scheme         WeightScheme... mBecke (2022)
Basis function cutoff            BFCut       ... 1.0000e-11
Integration weight cutoff        WCut        ... 1.0000e-14
Partially contracted basis set               ... on
Rotationally invariant grid construction     ... off
Angular grids for H and He will be reduced by one unit

Total number of grid points                  ...    15181
Total number of batches                      ...      128
Average number of points per batch           ...      118
Average number of grid points per atom       ...     1168
UseSFitting                                  ... on

GRIDX 3
-------
General Integration Accuracy     IntAcc      ... 4.338
Radial Grid Type                 RadialGrid  ... OptM3 with GC (2021)
Angular Grid (max. ang.)         AngularGrid ... 3 (Lebedev-194)
Angular grid pruning method      GridPruning ... 4 (adaptive)
Weight generation scheme         WeightScheme... mBecke (2022)
Basis function cutoff            BFCut       ... 1.0000e-11
Integration weight cutoff        WCut        ... 1.0000e-14
Partially contracted basis set               ... on
Rotationally invariant grid construction     ... off
Angular grids for H and He will be reduced by one unit

Total number of grid points                  ...    33191
Total number of batches                      ...      267
Average number of points per batch           ...      124
Average number of grid points per atom       ...     2553
UseSFitting                                  ... on
Grids setup in   0.4 sec
Initializing property integral containers    ... done (  0.0 sec)

SHARK setup successfully completed in   0.6 seconds

Maximum memory used throughout the entire STARTUP-calculation: 20.5 MB


           ************************************************************
           *        Program running with 8 parallel MPI-processes     *
           *              working on a common directory               *
           ************************************************************
-------------------------------------------------------------------------------
                                 ORCA GUESS
                   Start orbitals & Density for SCF / CASSCF
-------------------------------------------------------------------------------

------------
SCF SETTINGS
------------
Hamiltonian:
 Density Functional     Method          .... DFT(GTOs)
 Exchange Functional    Exchange        .... PBE
   PBE kappa parameter   XKappa         ....  0.804000
   PBE mue parameter    XMuePBE         ....  0.219520
 Correlation Functional Correlation     .... P86
 LDA part of GGA corr.  LDAOpt          .... VWN-5
 Gradients option       PostSCFGGA      .... off
 Hybrid DFT is turned on
   Fraction HF Exchange ScalHFX         ....  0.690000
   Scaling of DF-GGA-X  ScalDFX         ....  0.310000
   Scaling of DF-GGA-C  ScalDFC         ....  0.422400
   Scaling of DF-LDA-C  ScalLDAC        ....  0.422400
   Perturbative correction              ....  1.000000
 RI-approximation to the Coulomb term is turned on
   Number of AuxJ basis functions       .... 333
   RIJ-COSX (HFX calculated with COS-X)).... on


General Settings:
 Integral files         IntName         .... opt
 Hartree-Fock type      HFTyp           .... RHF
 Total Charge           Charge          ....    0
 Multiplicity           Mult            ....    1
 Number of Electrons    NEL             ....   38
 Basis Dimension        Dim             ....  267
 Nuclear Repulsion      ENuc            ....    172.3308423652 Eh

Convergence Acceleration:
 AO-DIIS                CNVDIIS         .... on
   Start iteration      DIISMaxIt       ....    12
   Startup error        DIISStart       ....  0.200000
   # of expansion vecs  DIISMaxEq       ....     5
   Bias factor          DIISBfac        ....   1.050
   Max. coefficient     DIISMaxC        ....  10.000
 MO-DIIS                CNVKDIIS        .... off
 Trust-Rad. Augm. Hess. CNVTRAH         .... auto
   Auto Start mean grad. ratio tolernc. ....  1.125000
   Auto Start start iteration           ....    50
   Auto Start num. interpolation iter.  ....    10
   Max. Number of Micro iterations      ....    24
   Max. Number of Macro iterations      .... Maxiter - #DIIS iter
   Number of Davidson start vectors     ....     2
   Converg. threshold    (grad. norm)   ....   1.000e-05
   Grad. Scal. Fac. for Micro threshold ....   0.100
   Minimum threshold for Micro iter.    ....   1.000e-02
   NR start threshold (gradient norm)   ....   1.000e-04
   Initial trust radius                 ....   0.400
   Minimum AH scaling param. (alpha)    ....   1.000
   Maximum AH scaling param. (alpha)    .... 1000.000
   Quad. conv. algorithm                .... NR
   White noise on init. David. guess    .... on
   Maximum white noise                  ....   0.010
   Pseudo random numbers                .... off
   Inactive MOs                         .... canonical
   Orbital update algorithm             .... Taylor
   Preconditioner                       .... Diag
   Full preconditioner red. dimension   ....   250
 SOSCF                 CNVSOSCF           .... on
   Start iteration     SOSCFMaxIt         ....   150
   Startup grad/error  SOSCFStart         ....  0.003300
   Hessian update      SOSCFHessUp        .... L-BFGS
   Autom. constraints  SOSCFAutoConstrain .... off
 Level Shifting         CNVShift        .... on
   Level shift para.    LevelShift      ....    0.2500
   Turn off err/grad.   ShiftErr        ....    0.0010
 Zerner damping         CNVZerner       .... off
 Static damping         CNVDamp         .... on
   Fraction old density DampFac         ....    0.7000
   Max. Damping (<1)    DampMax         ....    0.9800
   Min. Damping (>=0)   DampMin         ....    0.0000
   Turn off err/grad.   DampErr         ....    0.1000

SCF Procedure:
 Maximum # iterations   MaxIter         ....   125
 SCF integral mode      SCFMode         .... Direct
   Integral package                     .... SHARK and LIBINT hybrid scheme
 Reset frequency        DirectResetFreq ....    20
 Integral Threshold     Thresh          ....  2.500e-11 Eh
 Primitive CutOff       TCut            ....  2.500e-12 Eh

Convergence Tolerance:
 Convergence Check Mode ConvCheckMode   .... Total+1el-Energy
 Convergence forced     ConvForced      .... 0
 Energy Change          TolE            ....  1.000e-08 Eh
 1-El. energy change                    ....  1.000e-05 Eh
 Orbital Gradient       TolG            ....  1.000e-05
 Orbital Rotation angle TolX            ....  1.000e-05
 DIIS Error             TolErr          ....  5.000e-07

------------------------------
INITIAL GUESS: MODEL POTENTIAL
------------------------------
Loading Hartree-Fock densities                     ... done
Calculating cut-offs                               ... done
Initializing the effective Hamiltonian             ... done
Setting up the integral package (SHARK)            ... done
Starting the Coulomb interaction                   ... done (   0.0 sec)
Making the grid                                    ... done (   0.1 sec)
Mapping shells                                     ... done
Starting the XC term evaluation                    ... done (   0.0 sec)
  promolecular density results
     # of electrons  =     37.993931177
     EX              =    -27.934020196
     EC              =      0.000703740
     EX+EC           =    -27.933316456
Transforming the Hamiltonian                       ... done (   0.0 sec)
Diagonalizing the Hamiltonian                      ... done (   0.0 sec)
Back transforming the eigenvectors                 ... done (   0.0 sec)
Now organizing SCF variables                       ... done
                      ------------------
                      INITIAL GUESS DONE (   0.1 sec)
                      ------------------
             **** ENERGY FILE WAS UPDATED (opt.en.tmp) ****
Finished Guess after   0.7 sec
Maximum memory used throughout the entire GUESS-calculation: 15.1 MB


           ************************************************************
           *        Program running with 8 parallel MPI-processes     *
           *              working on a common directory               *
           ************************************************************

-------------------------------------------------------------------------------------------
                                      ORCA LEAN-SCF
                              memory conserving SCF solver
-------------------------------------------------------------------------------------------

----------------------------------------D-I-I-S--------------------------------------------
Iteration    Energy (Eh)           Delta-E    RMSDP     MaxDP     DIISErr   Damp  Time(sec)
-------------------------------------------------------------------------------------------
               ***  Starting incremental Fock matrix formation  ***
    1    -194.3821040213695142     0.00e+00  2.60e-03  2.65e-02  1.62e-01  0.700   0.9
    2    -194.4523411297087137    -7.02e-02  2.04e-03  1.91e-02  9.95e-02  0.700   0.6
                               ***Turning on AO-DIIS***
    3    -194.4897228684200172    -3.74e-02  1.10e-03  9.35e-03  5.37e-02  0.700   0.6
    4    -194.5122875338338986    -2.26e-02  2.56e-03  2.10e-02  3.48e-02  0.000   0.6
    5    -194.5610161045829045    -4.87e-02  3.96e-04  3.73e-03  3.55e-03  0.000   0.6
                              *** Initializing SOSCF ***
---------------------------------------S-O-S-C-F--------------------------------------
Iteration    Energy (Eh)           Delta-E    RMSDP     MaxDP     MaxGrad    Time(sec)
--------------------------------------------------------------------------------------
    6    -194.5611115472783581    -9.54e-05  2.07e-04  2.10e-03  9.15e-04     0.6
               *** Restarting incremental Fock matrix formation ***
    7    -194.5610918310242141     1.97e-05  1.46e-04  1.36e-03  2.91e-04     0.9
    8    -194.5610942721079937    -2.44e-06  5.12e-05  4.63e-04  8.83e-05     0.8
    9    -194.5610944581143826    -1.86e-07  1.48e-05  1.37e-04  4.61e-05     0.7
   10    -194.5610945102757796    -5.22e-08  2.06e-06  1.93e-05  3.90e-06     0.7
   11    -194.5610945225930664    -1.23e-08  3.60e-07  3.65e-06  1.02e-06     0.6
                  *** Gradient check signals convergence ***

               *****************************************************
               *                     SUCCESS                       *
               *           SCF CONVERGED AFTER  11 CYCLES          *
               *****************************************************

Recomputing exchange energy using gridx3       ... done (    1.313 sec)
Old exchange energy                            :    -19.898387477 Eh
New exchange energy                            :    -19.898384001 Eh
Exchange energy change after final integration :      0.000003475 Eh
Total energy after final integration           :   -194.561091048 Eh
             **** ENERGY FILE WAS UPDATED (opt.en.tmp) ****

----------------
TOTAL SCF ENERGY
----------------

Total Energy       :       -194.56109104754572 Eh           -5294.27644 eV

Components:
Nuclear Repulsion  :        172.33084236520369 Eh            4689.36062 eV
Electronic Energy  :       -366.89193688809678 Eh           -9983.63716 eV
One Electron Energy:       -602.38447950853083 Eh          -16391.71503 eV
Two Electron Energy:        235.49254262043408 Eh            6408.07787 eV

Virial components:
Potential Energy   :       -388.64032064597529 Eh          -10575.44077 eV
Kinetic Energy     :        194.07922959842955 Eh            5281.16433 eV
Virial Ratio       :          2.00248280792392

DFT components:
N(Alpha)           :       19.000002586794 electrons
N(Beta)            :       19.000002586794 electrons
N(Total)           :       38.000005173589 electrons
E(X)               :       -8.883114693939 Eh       
E(C)               :       -0.572632031841 Eh       
E(XC)              :       -9.455746725780 Eh       

---------------
SCF CONVERGENCE
---------------

  Last Energy change         ...    1.2317e-08  Tolerance :   1.0000e-08
  Last MAX-Density change    ...    3.6517e-06  Tolerance :   1.0000e-07
  Last RMS-Density change    ...    3.6046e-07  Tolerance :   5.0000e-09
  Last DIIS Error            ...    9.1469e-04  Tolerance :   5.0000e-07
  Last Orbital Gradient      ...    1.0177e-06  Tolerance :   1.0000e-05
  Last Orbital Rotation      ...    1.4479e-06  Tolerance :   1.0000e-05


----------------
ORBITAL ENERGIES
----------------

  NO   OCC          E(Eh)            E(eV) 
   0   2.0000     -10.805272      -294.0264 
   1   2.0000     -10.805088      -294.0214 
   2   2.0000     -10.804334      -294.0009 
   3   2.0000     -10.802914      -293.9622 
   4   2.0000     -10.802902      -293.9619 
   5   2.0000      -1.025055       -27.8932 
   6   2.0000      -0.868244       -23.6261 
   7   2.0000      -0.862811       -23.4783 
   8   2.0000      -0.705997       -19.2112 
   9   2.0000      -0.648881       -17.6569 
  10   2.0000      -0.609224       -16.5778 
  11   2.0000      -0.574530       -15.6337 
  12   2.0000      -0.494181       -13.4474 
  13   2.0000      -0.474102       -12.9010 
  14   2.0000      -0.437482       -11.9045 
  15   2.0000      -0.435695       -11.8559 
  16   2.0000      -0.429470       -11.6865 
  17   2.0000      -0.425474       -11.5777 
  18   2.0000      -0.304861        -8.2957 
  19   0.0000       0.103798         2.8245 
  20   0.0000       0.107480         2.9247 
  21   0.0000       0.140258         3.8166 
  22   0.0000       0.142826         3.8865 
  23   0.0000       0.147468         4.0128 
  24   0.0000       0.165164         4.4943 
  25   0.0000       0.175917         4.7870 
  26   0.0000       0.191528         5.2117 
  27   0.0000       0.203426         5.5355 
  28   0.0000       0.244517         6.6537 
  29   0.0000       0.247577         6.7369 
*Only the first 10 virtual orbitals were printed.

                    ********************************
                    * MULLIKEN POPULATION ANALYSIS *
                    ********************************

-----------------------
MULLIKEN ATOMIC CHARGES
-----------------------
   0 C :   -0.063122
   1 C :   -0.146067
   2 C :   -0.063261
   3 C :   -0.164057
   4 C :   -0.163958
   5 H :    0.062908
   6 H :    0.066797
   7 H :    0.071565
   8 H :    0.068065
   9 H :    0.066944
  10 H :    0.062870
  11 H :    0.100836
  12 H :    0.100479
Sum of atomic charges:   -0.0000000

--------------------------------
MULLIKEN REDUCED ORBITAL CHARGES
--------------------------------
  0 C s       :     3.078197  s :     3.078197
      pz      :     1.019707  p :     2.864936
      px      :     0.963192
      py      :     0.882036
      dz2     :     0.017945  d :     0.113819
      dxz     :     0.031835
      dyz     :     0.017271
      dx2y2   :     0.024924
      dxy     :     0.021845
      f0      :     0.000742  f :     0.006170
      f+1     :     0.000800
      f-1     :     0.000528
      f+2     :     0.000456
      f-2     :     0.000834
      f+3     :     0.001457
      f-3     :     0.001353

  1 C s       :     3.130068  s :     3.130068
      pz      :     1.049147  p :     2.905879
      px      :     0.878412
      py      :     0.978321
      dz2     :     0.021931  d :     0.103957
      dxz     :     0.015301
      dyz     :     0.019991
      dx2y2   :     0.026598
      dxy     :     0.020138
      f0      :     0.000879  f :     0.006162
      f+1     :     0.000554
      f-1     :     0.000510
      f+2     :     0.000560
      f-2     :     0.000790
      f+3     :     0.001444
      f-3     :     0.001425

  2 C s       :     3.078257  s :     3.078257
      pz      :     1.019876  p :     2.865014
      px      :     0.963224
      py      :     0.881915
      dz2     :     0.018192  d :     0.113823
      dxz     :     0.031502
      dyz     :     0.017266
      dx2y2   :     0.025018
      dxy     :     0.021844
      f0      :     0.000750  f :     0.006166
      f+1     :     0.000786
      f-1     :     0.000530
      f+2     :     0.000458
      f-2     :     0.000834
      f+3     :     0.001456
      f-3     :     0.001352

  3 C s       :     3.164564  s :     3.164564
      pz      :     0.961492  p :     2.881828
      px      :     0.966216
      py      :     0.954119
      dz2     :     0.003751  d :     0.109730
      dxz     :     0.023654
      dyz     :     0.007714
      dx2y2   :     0.030010
      dxy     :     0.044600
      f0      :     0.001273  f :     0.007936
      f+1     :     0.000579
      f-1     :     0.000861
      f+2     :     0.001062
      f-2     :     0.000295
      f+3     :     0.001432
      f-3     :     0.002434

  4 C s       :     3.164401  s :     3.164401
      pz      :     0.961315  p :     2.881813
      px      :     0.966448
      py      :     0.954050
      dz2     :     0.003694  d :     0.109801
      dxz     :     0.023691
      dyz     :     0.007737
      dx2y2   :     0.030053
      dxy     :     0.044626
      f0      :     0.001274  f :     0.007943
      f+1     :     0.000580
      f-1     :     0.000858
      f+2     :     0.001064
      f-2     :     0.000295
      f+3     :     0.001434
      f-3     :     0.002438

  5 H s       :     0.895143  s :     0.895143
      pz      :     0.018697  p :     0.039853
      px      :     0.011978
      py      :     0.009179
      dz2     :     0.000593  d :     0.002096
      dxz     :     0.000624
      dyz     :     0.000598
      dx2y2   :     0.000128
      dxy     :     0.000154

  6 H s       :     0.890991  s :     0.890991
      pz      :     0.013300  p :     0.040110
      px      :     0.017201
      py      :     0.009609
      dz2     :     0.000578  d :     0.002101
      dxz     :     0.000400
      dyz     :     0.000285
      dx2y2   :     0.000348
      dxy     :     0.000490

  7 H s       :     0.886631  s :     0.886631
      pz      :     0.011792  p :     0.039719
      px      :     0.009559
      py      :     0.018368
      dz2     :     0.000478  d :     0.002085
      dxz     :     0.000176
      dyz     :     0.000433
      dx2y2   :     0.000335
      dxy     :     0.000664

  8 H s       :     0.890537  s :     0.890537
      pz      :     0.019541  p :     0.039277
      px      :     0.009004
      py      :     0.010732
      dz2     :     0.000541  d :     0.002120
      dxz     :     0.000716
      dyz     :     0.000728
      dx2y2   :     0.000051
      dxy     :     0.000085

  9 H s       :     0.890869  s :     0.890869
      pz      :     0.013199  p :     0.040089
      px      :     0.017285
      py      :     0.009605
      dz2     :     0.000573  d :     0.002099
      dxz     :     0.000401
      dyz     :     0.000277
      dx2y2   :     0.000352
      dxy     :     0.000496

 10 H s       :     0.895196  s :     0.895196
      pz      :     0.018765  p :     0.039837
      px      :     0.011910
      py      :     0.009163
      dz2     :     0.000591  d :     0.002097
      dxz     :     0.000630
      dyz     :     0.000602
      dx2y2   :     0.000124
      dxy     :     0.000149

 11 H s       :     0.859982  s :     0.859982
      pz      :     0.010748  p :     0.037224
      px      :     0.010301
      py      :     0.016175
      dz2     :     0.000134  d :     0.001958
      dxz     :     0.000280
      dyz     :     0.000321
      dx2y2   :     0.000777
      dxy     :     0.000446

 12 H s       :     0.860327  s :     0.860327
      pz      :     0.010733  p :     0.037236
      px      :     0.010316
      py      :     0.016187
      dz2     :     0.000134  d :     0.001958
      dxz     :     0.000282
      dyz     :     0.000318
      dx2y2   :     0.000781
      dxy     :     0.000443



                     *******************************
                     * LOEWDIN POPULATION ANALYSIS *
                     *******************************

----------------------
LOEWDIN ATOMIC CHARGES
----------------------
   0 C :   -0.020073
   1 C :    0.000772
   2 C :   -0.020035
   3 C :   -0.016568
   4 C :   -0.016823
   5 H :    0.013962
   6 H :    0.010253
   7 H :    0.005680
   8 H :    0.014023
   9 H :    0.010177
  10 H :    0.013973
  11 H :    0.002297
  12 H :    0.002362

-------------------------------
LOEWDIN REDUCED ORBITAL CHARGES
-------------------------------
  0 C s       :     2.685808  s :     2.685808
      pz      :     0.997099  p :     2.877815
      px      :     0.947180
      py      :     0.933536
      dz2     :     0.065098  d :     0.412811
      dxz     :     0.101896
      dyz     :     0.056207
      dx2y2   :     0.098154
      dxy     :     0.091455
      f0      :     0.004629  f :     0.043639
      f+1     :     0.004710
      f-1     :     0.004911
      f+2     :     0.004805
      f-2     :     0.005872
      f+3     :     0.009527
      f-3     :     0.009185

  1 C s       :     2.688992  s :     2.688992
      pz      :     1.000199  p :     2.868232
      px      :     0.917091
      py      :     0.950942
      dz2     :     0.083589  d :     0.399362
      dxz     :     0.054201
      dyz     :     0.069760
      dx2y2   :     0.101124
      dxy     :     0.090688
      f0      :     0.005728  f :     0.042642
      f+1     :     0.004761
      f-1     :     0.002939
      f+2     :     0.005730
      f-2     :     0.006063
      f+3     :     0.009965
      f-3     :     0.007455

  2 C s       :     2.686053  s :     2.686053
      pz      :     0.997266  p :     2.877885
      px      :     0.947359
      py      :     0.933260
      dz2     :     0.065855  d :     0.412542
      dxz     :     0.100676
      dyz     :     0.056177
      dx2y2   :     0.098409
      dxy     :     0.091426
      f0      :     0.004686  f :     0.043555
      f+1     :     0.004620
      f-1     :     0.004900
      f+2     :     0.004816
      f-2     :     0.005884
      f+3     :     0.009487
      f-3     :     0.009161

  3 C s       :     2.731770  s :     2.731770
      pz      :     0.844471  p :     2.841122
      px      :     1.042187
      py      :     0.954464
      dz2     :     0.027119  d :     0.399332
      dxz     :     0.062210
      dyz     :     0.033492
      dx2y2   :     0.112605
      dxy     :     0.163907
      f0      :     0.002433  f :     0.044344
      f+1     :     0.003613
      f-1     :     0.003116
      f+2     :     0.007219
      f-2     :     0.001957
      f+3     :     0.008668
      f-3     :     0.017338

  4 C s       :     2.731568  s :     2.731568
      pz      :     0.844109  p :     2.840813
      px      :     1.042206
      py      :     0.954498
      dz2     :     0.027093  d :     0.400060
      dxz     :     0.062342
      dyz     :     0.033632
      dx2y2   :     0.112588
      dxy     :     0.164405
      f0      :     0.002440  f :     0.044382
      f+1     :     0.003618
      f-1     :     0.003104
      f+2     :     0.007221
      f-2     :     0.001961
      f+3     :     0.008690
      f-3     :     0.017348

  5 H s       :     0.807761  s :     0.807761
      pz      :     0.066089  p :     0.149482
      px      :     0.043025
      py      :     0.040368
      dz2     :     0.009454  d :     0.028795
      dxz     :     0.008670
      dyz     :     0.007329
      dx2y2   :     0.001493
      dxy     :     0.001849

  6 H s       :     0.812340  s :     0.812340
      pz      :     0.053049  p :     0.148532
      px      :     0.055722
      py      :     0.039761
      dz2     :     0.007785  d :     0.028876
      dxz     :     0.007193
      dyz     :     0.003437
      dx2y2   :     0.004839
      dxy     :     0.005620

  7 H s       :     0.815467  s :     0.815467
      pz      :     0.048363  p :     0.149820
      px      :     0.039830
      py      :     0.061627
      dz2     :     0.006668  d :     0.029034
      dxz     :     0.002008
      dyz     :     0.007507
      dx2y2   :     0.005681
      dxy     :     0.007170

  8 H s       :     0.807868  s :     0.807868
      pz      :     0.069337  p :     0.148833
      px      :     0.038707
      py      :     0.040788
      dz2     :     0.009715  d :     0.029276
      dxz     :     0.008516
      dyz     :     0.009708
      dx2y2   :     0.000389
      dxy     :     0.000949

  9 H s       :     0.812524  s :     0.812524
      pz      :     0.052793  p :     0.148467
      px      :     0.055997
      py      :     0.039676
      dz2     :     0.007711  d :     0.028832
      dxz     :     0.007182
      dyz     :     0.003338
      dx2y2   :     0.004914
      dxy     :     0.005687

 10 H s       :     0.807682  s :     0.807682
      pz      :     0.066314  p :     0.149539
      px      :     0.042889
      py      :     0.040336
      dz2     :     0.009467  d :     0.028805
      dxz     :     0.008719
      dyz     :     0.007381
      dx2y2   :     0.001444
      dxy     :     0.001794

 11 H s       :     0.819328  s :     0.819328
      pz      :     0.041436  p :     0.150945
      px      :     0.045581
      py      :     0.063928
      dz2     :     0.002510  d :     0.027430
      dxz     :     0.003077
      dyz     :     0.004946
      dx2y2   :     0.008997
      dxy     :     0.007900

 12 H s       :     0.819341  s :     0.819341
      pz      :     0.041388  p :     0.150874
      px      :     0.045701
      py      :     0.063786
      dz2     :     0.002508  d :     0.027423
      dxz     :     0.003106
      dyz     :     0.004910
      dx2y2   :     0.009000
      dxy     :     0.007899



                      *****************************
                      * MAYER POPULATION ANALYSIS *
                      *****************************

  NA   - Mulliken gross atomic population
  ZA   - Total nuclear charge
  QA   - Mulliken gross atomic charge
  VA   - Mayer's total valence
  BVA  - Mayer's bonded valence
  FA   - Mayer's free valence

  ATOM       NA         ZA         QA         VA         BVA        FA
  0 C      6.0631     6.0000    -0.0631     3.9000     3.9000     0.0000
  1 C      6.1461     6.0000    -0.1461     3.9716     3.9716     0.0000
  2 C      6.0633     6.0000    -0.0633     3.9001     3.9001    -0.0000
  3 C      6.1641     6.0000    -0.1641     3.9205     3.9205    -0.0000
  4 C      6.1640     6.0000    -0.1640     3.9200     3.9200     0.0000
  5 H      0.9371     1.0000     0.0629     1.0091     1.0091    -0.0000
  6 H      0.9332     1.0000     0.0668     1.0091     1.0091     0.0000
  7 H      0.9284     1.0000     0.0716     1.0133     1.0133    -0.0000
  8 H      0.9319     1.0000     0.0681     1.0128     1.0128     0.0000
  9 H      0.9331     1.0000     0.0669     1.0090     1.0090    -0.0000
 10 H      0.9371     1.0000     0.0629     1.0091     1.0091    -0.0000
 11 H      0.8992     1.0000     0.1008     1.0091     1.0091    -0.0000
 12 H      0.8995     1.0000     0.1005     1.0092     1.0092     0.0000

  Mayer bond orders larger than 0.100000
B(  0-C ,  1-C ) :   0.9557 B(  0-C ,  4-C ) :   0.9726 B(  0-C ,  5-H ) :   0.9903 
B(  0-C ,  6-H ) :   1.0083 B(  1-C ,  2-C ) :   0.9557 B(  1-C ,  7-H ) :   1.0111 
B(  1-C ,  8-H ) :   1.0081 B(  2-C ,  3-C ) :   0.9727 B(  2-C ,  9-H ) :   1.0081 
B(  2-C , 10-H ) :   0.9903 B(  3-C ,  4-C ) :   1.9427 B(  3-C , 11-H ) :   0.9806 
B(  4-C , 12-H ) :   0.9807 

-------
TIMINGS
-------

Total SCF time: 0 days 0 hours 0 min 9 sec 

Total time                  ....       9.957 sec
Sum of individual times     ....       9.406 sec  ( 94.5%)

SCF preparation             ....       0.549 sec  (  5.5%)
Fock matrix formation       ....       8.437 sec  ( 84.7%)
  Startup                   ....       0.010 sec  (  0.1% of F)
  Split-RI-J                ....       0.591 sec  (  7.0% of F)
  Chain of spheres X        ....       6.733 sec  ( 79.8% of F)
  XC integration            ....       1.482 sec  ( 17.6% of F)
    Basis function eval.    ....       0.465 sec  ( 31.3% of XC)
    Density eval.           ....       0.319 sec  ( 21.5% of XC)
    XC-Functional eval.     ....       0.064 sec  (  4.3% of XC)
    XC-Potential eval.      ....       0.448 sec  ( 30.2% of XC)
Diagonalization             ....       0.000 sec  (  0.0%)
Density matrix formation    ....       0.048 sec  (  0.5%)
Total Energy calculation    ....       0.027 sec  (  0.3%)
Population analysis         ....       0.021 sec  (  0.2%)
Orbital Transformation      ....       0.037 sec  (  0.4%)
Orbital Orthonormalization  ....       0.000 sec  (  0.0%)
DIIS solution               ....       0.180 sec  (  1.8%)
SOSCF solution              ....       0.106 sec  (  1.1%)
Finished LeanSCF after  10.0 sec

Maximum memory used throughout the entire LEANSCF-calculation: 21.7 MB


           ************************************************************
           *        Program running with 8 parallel MPI-processes     *
           *              working on a common directory               *
           ************************************************************

------------------------------------------------------------------------------
                                ORCA  MP2 
------------------------------------------------------------------------------

Freezing NCore=10 chemical core electrons

----------------------
RI-MP2 ENERGY+GRADIENT
----------------------
Dimension of the orbital basis            ...  267
Dimension of the AuxC basis               ...  620
Memory devoted to MP2                     ... 10000 MB   
Data format for matrix containers         ... DOUBLE
Compression type for matrix containers    ... UNCOMPRESSED
Scaling for aa/bb pairs                   ...   5.660e-02
Scaling for ab pairs                      ...   5.935e-01
Overall scaling of the MP2 energy         ...   1.000e+00

-----------------------
SHARK RI TRANSFORMATION
-----------------------

Number of basis functions                ...    267
Number of aux functions                  ...    620
Number of operators                      ...      1
Generation of IJK                        ... YES
Generation of IAK                        ... YES
Generation of ABK                        ... NO
Orbital Range Operator  0:    0-  18 to   19- 266

Aux basis identifier                     ...   AUXC
Contraction scheme used                  ... SEGMENTED
Do orthogonalization                     ... YES
All operator combinations                ... NO
Transpose (ia|K)                         ... NO
Integral generator used                  ... LIBINT
Starting integral generation + trafo... 
Half trafo (segmented) done. Total time =  0.1 sec. integrals=  0.1 sec trafo=  0.0 sec
Integral generation and half transformation done (  0.1 sec)

Reading or making V^(-1/2)          ... done (  0.0 sec)
Sorting IJK integrals               ... done (  0.0 sec)
Sorting IAK integrals               ... done (  0.1 sec)

SHARK RI integral transformation done. Total time =  0.2 sec.

Opening buffers                              ... done
Frozen core precalculation                   ... done

Starting loop over batches of integrals:

Operator 0  - window                       ... (  5- 18)x( 19-266)
Operator 0  - Memory available             ... 10000 MB
Operator 0  - Memory needed per MO         ...   1.2 MB
Operator 0  - Number of orbitals per batch ... 2
Operator 0  - Number of batches            ... 1

OPERATOR  0   PASS   0:  MOs     5 ...    6 +    7 ...    8 +    9 ...   10 +   11 ...   12
                            +   13 ...   14 +   15 ...   16 +   17 ...   18
  Reading integrals       ... ok
Closing buffer GIPV ( 0.02 GB; CompressionRatio= 1.00)
Time spent in pair loops =     0.292 sec
Deleting buffers (Ka|jb) ...done

-----------------------------------------------
 RI-MP2 CORRELATION ENERGY:     -0.438905168 Eh
-----------------------------------------------


---------------------
MP2 DENSITY FORMATION
---------------------

Completing the external part of the density      ... done
Storing the unrelaxed density                    ... done

Re-sorting 3-index density container for op 0    ... done
Computing external part of the Lagrangian        ... done
Calculating the xc-kernel                        ... done
Calculating G(D)                                 ... done
Completing the Lagrangian                        ... done
Solving the Z-vector equations                   ... Using XC Grid                  ... (opt.grid_cpscf.tmp) 
Recalculating density on grid  ... (opt.grho_cpscf0.tmp) done
Calculating the xc-kernel      ... (opt.fxc_cpscf0.tmp) done

-------------------
SHARK CP-SCF DRIVER
-------------------

Dimension of the orbital basis          ...    267
Dimension of the CPSCF-problem          ...   4712
Number of operators                     ...      1
Max. number of iterations               ...    128
Convergence Tolerance                   ... 1.0e-04
Number of perturbations                 ...      1
Perturbation type                       ... REAL

----------------------------
POPLE LINEAR EQUATION SOLVER
----------------------------

  ITERATION   0:   ||err||_max =   4.5482e-02 (   0.3 sec)
  ITERATION   1:   ||err||_max =   9.5373e-03 (   0.4 sec)
  ITERATION   2:   ||err||_max =   2.3155e-03 (   0.4 sec)
  ITERATION   3:   ||err||_max =   4.6148e-04 (   0.4 sec)
  ITERATION   4:   ||err||_max =   1.5259e-04 (   0.4 sec)
  ITERATION   5:   ||err||_max =   1.9903e-05 (   0.4 sec)
done
Finalizing the relaxed density                   ... done
Transforming P to the AO basis                   ... done
Storing the relaxed density                      ... done

------------------------------------
ENERGY WEIGHTED DENSITY FINALIZATION
------------------------------------

Gathering the parts of the W-matrix              ... done
Forming the Z-density                            ... done
Transforming Z to the AO basis                   ... done
Calculating G(Z)                                 ... done
Finalizing the W-matrix                          ... done
Transforming W to the AO basis and storing       ... done

----------------------------------
MP2 DERIVATIVE INTEGRAL GENERATION
----------------------------------

Input SCF Electron Density              ... opt.scfp
Input Correlated Electron Density       ... opt.pmp2re
Input Energy Weighted Density           ... opt.wmp2.tmp

Nuclear repulsion gradient              ... done (  0.0 sec)
HCore & Overlap gradient  (SHARK)       ... done (  0.0 sec)
Two-electron RIJ gradient terms         ... done (  0.5 sec)

-----------------------------------------------------------
MP2 COSX Grid Generation
-----------------------------------------------------------

General Integration Accuracy     IntAcc      ... 4.871
Radial Grid Type                 RadialGrid  ... OptM3 with GC (2021)
Angular Grid (max. ang.)         AngularGrid ... 4 (Lebedev-302)
Angular grid pruning method      GridPruning ... 4 (adaptive)
Weight generation scheme         WeightScheme... mBecke (2022)
Basis function cutoff            BFCut       ... 1.0000e-11
Integration weight cutoff        WCut        ... 1.0000e-14
Partially contracted basis set               ... on
Rotationally invariant grid construction     ... off
Angular grids for H and He will be reduced by one unit

Total number of grid points                  ...    65384
Total number of batches                      ...      517
Average number of points per batch           ...      126
Average number of grid points per atom       ...     5030
UseSFitting                                  ... on
Two-electron COSX gradient terms        ... 
Integration Timings:
Total Time                  =     3.3 sec
Basis fcn evaluation        =     0.1 sec
Density evaluation          =     0.1 sec
A evaluation                =     2.8 sec
A derivative evaluation     =     0.0 sec
S-fit derivative evaluation =     0.0 sec
anal. over. der. evaluation =     0.0 sec
num. over. der. evaluation  =     0.1 sec
K(P) evaluation             =     0.1 sec
finalize                    =     0.0 sec

done (  3.6 sec)
DFT XC gradient                         ... done (  0.4 sec)
Empirical dispersion gradient           ... done (  0.0 sec)

                *********************************************
                * UNRELAXED MP2 DENSITY POPULATION ANALYSIS *
                *********************************************

------------------------------------------------------------------------------
                           ORCA POPULATION ANALYSIS
------------------------------------------------------------------------------
Input electron density              ... opt.pmp2ur
BaseName (.gbw .S,...)              ... opt

                    ********************************
                    * MULLIKEN POPULATION ANALYSIS *
                    ********************************

-----------------------
MULLIKEN ATOMIC CHARGES
-----------------------
   0 C :   -0.064839
   1 C :   -0.148023
   2 C :   -0.064983
   3 C :   -0.164970
   4 C :   -0.164885
   5 H :    0.063754
   6 H :    0.067666
   7 H :    0.072455
   8 H :    0.068917
   9 H :    0.067815
  10 H :    0.063714
  11 H :    0.101867
  12 H :    0.101511
Sum of atomic charges:   -0.0000000

--------------------------------
MULLIKEN REDUCED ORBITAL CHARGES
--------------------------------
  0 C s       :     3.076986  s :     3.076986
      pz      :     1.016160  p :     2.854670
      px      :     0.959309
      py      :     0.879201
      dz2     :     0.020037  d :     0.124953
      dxz     :     0.034265
      dyz     :     0.020013
      dx2y2   :     0.027079
      dxy     :     0.023559
      f0      :     0.001045  f :     0.008229
      f+1     :     0.001070
      f-1     :     0.000798
      f+2     :     0.000771
      f-2     :     0.001147
      f+3     :     0.001753
      f-3     :     0.001645
  1 C s       :     3.128967  s :     3.128967
      pz      :     1.045418  p :     2.895710
      px      :     0.875615
      py      :     0.974676
      dz2     :     0.023938  d :     0.115172
      dxz     :     0.017969
      dyz     :     0.022603
      dx2y2   :     0.029126
      dxy     :     0.021535
      f0      :     0.001142  f :     0.008174
      f+1     :     0.000842
      f-1     :     0.000808
      f+2     :     0.000830
      f-2     :     0.001097
      f+3     :     0.001783
      f-3     :     0.001671
  2 C s       :     3.077048  s :     3.077048
      pz      :     1.016327  p :     2.854750
      px      :     0.959339
      py      :     0.879084
      dz2     :     0.020283  d :     0.124960
      dxz     :     0.033938
      dyz     :     0.020004
      dx2y2   :     0.027177
      dxy     :     0.023558
      f0      :     0.001051  f :     0.008225
      f+1     :     0.001058
      f-1     :     0.000800
      f+2     :     0.000773
      f-2     :     0.001147
      f+3     :     0.001752
      f-3     :     0.001645
  3 C s       :     3.163305  s :     3.163305
      pz      :     0.958159  p :     2.871004
      px      :     0.962461
      py      :     0.950383
      dz2     :     0.006264  d :     0.120716
      dxz     :     0.025645
      dyz     :     0.010465
      dx2y2   :     0.031371
      dxy     :     0.046971
      f0      :     0.001490  f :     0.009946
      f+1     :     0.000811
      f-1     :     0.001054
      f+2     :     0.001345
      f-2     :     0.000622
      f+3     :     0.001731
      f-3     :     0.002894
  4 C s       :     3.163150  s :     3.163150
      pz      :     0.957990  p :     2.871002
      px      :     0.962695
      py      :     0.950317
      dz2     :     0.006207  d :     0.120779
      dxz     :     0.025681
      dyz     :     0.010488
      dx2y2   :     0.031407
      dxy     :     0.046996
      f0      :     0.001491  f :     0.009953
      f+1     :     0.000812
      f-1     :     0.001051
      f+2     :     0.001347
      f-2     :     0.000622
      f+3     :     0.001733
      f-3     :     0.002897
  5 H s       :     0.891733  s :     0.891733
      pz      :     0.019103  p :     0.042058
      px      :     0.012791
      py      :     0.010165
      dz2     :     0.000675  d :     0.002454
      dxz     :     0.000697
      dyz     :     0.000685
      dx2y2   :     0.000188
      dxy     :     0.000209
  6 H s       :     0.887476  s :     0.887476
      pz      :     0.013974  p :     0.042395
      px      :     0.017804
      py      :     0.010617
      dz2     :     0.000650  d :     0.002463
      dxz     :     0.000473
      dyz     :     0.000362
      dx2y2   :     0.000419
      dxy     :     0.000558
  7 H s       :     0.883075  s :     0.883075
      pz      :     0.012570  p :     0.042020
      px      :     0.010574
      py      :     0.018876
      dz2     :     0.000545  d :     0.002450
      dxz     :     0.000248
      dyz     :     0.000512
      dx2y2   :     0.000412
      dxy     :     0.000733
  8 H s       :     0.887175  s :     0.887175
      pz      :     0.019845  p :     0.041430
      px      :     0.009975
      py      :     0.011609
      dz2     :     0.000623  d :     0.002478
      dxz     :     0.000803
      dyz     :     0.000807
      dx2y2   :     0.000108
      dxy     :     0.000137
  9 H s       :     0.887348  s :     0.887348
      pz      :     0.013878  p :     0.042377
      px      :     0.017885
      py      :     0.010613
      dz2     :     0.000645  d :     0.002460
      dxz     :     0.000474
      dyz     :     0.000354
      dx2y2   :     0.000423
      dxy     :     0.000565
 10 H s       :     0.891787  s :     0.891787
      pz      :     0.019168  p :     0.042044
      px      :     0.012727
      py      :     0.010149
      dz2     :     0.000673  d :     0.002455
      dxz     :     0.000704
      dyz     :     0.000690
      dx2y2   :     0.000184
      dxy     :     0.000204
 11 H s       :     0.855581  s :     0.855581
      pz      :     0.011754  p :     0.040183
      px      :     0.011296
      py      :     0.017133
      dz2     :     0.000200  d :     0.002370
      dxz     :     0.000348
      dyz     :     0.000426
      dx2y2   :     0.000871
      dxy     :     0.000525
 12 H s       :     0.855922  s :     0.855922
      pz      :     0.011741  p :     0.040196
      px      :     0.011312
      py      :     0.017144
      dz2     :     0.000199  d :     0.002370
      dxz     :     0.000350
      dyz     :     0.000424
      dx2y2   :     0.000875
      dxy     :     0.000522


                     *******************************
                     * LOEWDIN POPULATION ANALYSIS *
                     *******************************

----------------------
LOEWDIN ATOMIC CHARGES
----------------------
   0 C :   -0.018156
   1 C :    0.002366
   2 C :   -0.018119
   3 C :   -0.015728
   4 C :   -0.015976
   5 H :    0.013105
   6 H :    0.009398
   7 H :    0.004815
   8 H :    0.013119
   9 H :    0.009324
  10 H :    0.013116
  11 H :    0.001336
  12 H :    0.001399

-------------------------------
LOEWDIN REDUCED ORBITAL CHARGES
-------------------------------
  0 C s       :     2.684324  s :     2.684324
      pz      :     0.991774  p :     2.862505
      px      :     0.942170
      py      :     0.928561
      dz2     :     0.067668  d :     0.424440
      dxz     :     0.104088
      dyz     :     0.058431
      dx2y2   :     0.100327
      dxy     :     0.093926
      f0      :     0.005074  f :     0.046886
      f+1     :     0.005234
      f-1     :     0.005304
      f+2     :     0.005259
      f-2     :     0.006273
      f+3     :     0.010036
      f-3     :     0.009707
  1 C s       :     2.687475  s :     2.687475
      pz      :     0.995000  p :     2.853328
      px      :     0.912338
      py      :     0.945990
      dz2     :     0.086112  d :     0.411053
      dxz     :     0.056342
      dyz     :     0.072206
      dx2y2   :     0.103077
      dxy     :     0.093316
      f0      :     0.006236  f :     0.045777
      f+1     :     0.005138
      f-1     :     0.003397
      f+2     :     0.006106
      f-2     :     0.006461
      f+3     :     0.010378
      f-3     :     0.008061
  2 C s       :     2.684570  s :     2.684570
      pz      :     0.991941  p :     2.862578
      px      :     0.942348
      py      :     0.928288
      dz2     :     0.068422  d :     0.424171
      dxz     :     0.102873
      dyz     :     0.058401
      dx2y2   :     0.100579
      dxy     :     0.093897
      f0      :     0.005134  f :     0.046800
      f+1     :     0.005140
      f-1     :     0.005292
      f+2     :     0.005269
      f-2     :     0.006285
      f+3     :     0.009997
      f-3     :     0.009683
  3 C s       :     2.729751  s :     2.729751
      pz      :     0.840819  p :     2.826345
      px      :     1.036190
      py      :     0.949336
      dz2     :     0.030708  d :     0.411654
      dxz     :     0.064522
      dyz     :     0.035890
[...]
      px      :     0.043816
      py      :     0.041520
      dz2     :     0.009838  d :     0.029606
      dxz     :     0.008965
      dyz     :     0.007578
      dx2y2   :     0.001481
      dxy     :     0.001744
  6 H s       :     0.806104  s :     0.806104
      pz      :     0.053718  p :     0.153089
      px      :     0.058174
      py      :     0.041196
      dz2     :     0.007625  d :     0.029789
      dxz     :     0.007702
      dyz     :     0.003451
      dx2y2   :     0.005212
      dxy     :     0.005798
  7 H s       :     0.809940  s :     0.809940
      pz      :     0.048590  p :     0.154410
      px      :     0.041192
      py      :     0.064629
      dz2     :     0.006396  d :     0.029939
      dxz     :     0.001934
      dyz     :     0.008022
      dx2y2   :     0.006243
      dxy     :     0.007344
  8 H s       :     0.801655  s :     0.801655
      pz      :     0.072011  p :     0.153407
      px      :     0.040135
      py      :     0.041261
      dz2     :     0.010378  d :     0.030252
      dxz     :     0.008800
      dyz     :     0.009877
      dx2y2   :     0.000384
      dxy     :     0.000812
  9 H s       :     0.806101  s :     0.806101
      pz      :     0.053549  p :     0.153091
      px      :     0.058354
      py      :     0.041188
      dz2     :     0.007584  d :     0.029789
      dxz     :     0.007704
      dyz     :     0.003403
      dx2y2   :     0.005251
      dxy     :     0.005847
 10 H s       :     0.801552  s :     0.801552
      pz      :     0.068433  p :     0.153660
      px      :     0.043713
      py      :     0.041515
      dz2     :     0.009850  d :     0.029606
      dxz     :     0.008985
      dyz     :     0.007611
      dx2y2   :     0.001448
      dxy     :     0.001711
 11 H s       :     0.814841  s :     0.814841
      pz      :     0.042469  p :     0.155855
      px      :     0.047782
      py      :     0.065604
      dz2     :     0.002754  d :     0.028939
      dxz     :     0.003238
      dyz     :     0.005368
      dx2y2   :     0.009162
      dxy     :     0.008418
 12 H s       :     0.814838  s :     0.814838
      pz      :     0.042477  p :     0.155855
      px      :     0.047821
      py      :     0.065556
      dz2     :     0.002754  d :     0.028940
      dxz     :     0.003251
      dyz     :     0.005357
      dx2y2   :     0.009160
      dxy     :     0.008417


                      *****************************
                      * MAYER POPULATION ANALYSIS *
                      *****************************

  NA   - Mulliken gross atomic population
  ZA   - Total nuclear charge
  QA   - Mulliken gross atomic charge
  VA   - Mayer's total valence
  BVA  - Mayer's bonded valence
  FA   - Mayer's free valence

  ATOM       NA         ZA         QA         VA         BVA        FA
  0 C      6.1024     6.0000    -0.1024     3.9587     3.7767     0.1821
  1 C      6.1680     6.0000    -0.1680     4.0082     3.8221     0.1861
  2 C      6.1024     6.0000    -0.1024     3.9587     3.7766     0.1821
  3 C      6.1487     6.0000    -0.1487     3.9782     3.7543     0.2239
  4 C      6.1486     6.0000    -0.1486     3.9780     3.7542     0.2239
  5 H      0.9249     1.0000     0.0751     1.0111     0.9745     0.0366
  6 H      0.9215     1.0000     0.0785     1.0115     0.9756     0.0359
  7 H      0.9173     1.0000     0.0827     1.0156     0.9801     0.0355
  8 H      0.9193     1.0000     0.0807     1.0149     0.9791     0.0358
  9 H      0.9215     1.0000     0.0785     1.0115     0.9756     0.0359
 10 H      0.9248     1.0000     0.0752     1.0111     0.9745     0.0366
 11 H      0.9003     1.0000     0.0997     1.0145     0.9802     0.0343
 12 H      0.9003     1.0000     0.0997     1.0144     0.9802     0.0343

  Mayer bond orders larger than 0.100000
B(  0-C ,  1-C ) :   0.9217 B(  0-C ,  4-C ) :   0.9447 B(  0-C ,  5-H ) :   0.9555 
B(  0-C ,  6-H ) :   0.9720 B(  1-C ,  2-C ) :   0.9217 B(  1-C ,  7-H ) :   0.9757 
B(  1-C ,  8-H ) :   0.9733 B(  2-C ,  3-C ) :   0.9447 B(  2-C ,  9-H ) :   0.9720 
B(  2-C , 10-H ) :   0.9555 B(  3-C ,  4-C ) :   1.8288 B(  3-C , 11-H ) :   0.9545 
B(  4-C , 12-H ) :   0.9545 


-------
TIMINGS
-------

Total time                :   10.095 sec
Integral trafo            :    0.257 sec (  2.5%)
FC preparation            :    0.029 sec (  0.3%)
I/O of integrals          :    0.053 sec (  0.5%)
K(i,j) operators          :    0.037 sec (  0.4%)
T(i,j) pair energies      :    0.011 sec (  0.1%)
V**(-1/2)                 :    0.073 sec (  0.7%)
Gamma(ia|P)               :    0.038 sec (  0.4%)
Gamma-Trafo               :    0.017 sec (  0.2%)
D(virtual)                :    0.003 sec (  0.0%)
D(internal)               :    0.029 sec (  0.3%)
W(virtual)                :    0.006 sec (  0.1%)
W(internal)               :    0.039 sec (  0.4%)
L(virtual)                :    0.140 sec (  1.4%)
L(internal)               :    0.003 sec (  0.0%)
XC kernel                 :    0.018 sec (  0.2%)
G(D)                      :    0.854 sec (  8.5%)
G(Z)                      :    0.851 sec (  8.4%)
Z-vector solution         :    2.197 sec ( 21.8%)
3-index derivative        :    0.323 sec (  3.2%)
2-index derivative        :    0.040 sec (  0.4%)
Fock matrix gradient      :    4.601 sec ( 45.6%)


---------------------------------------
MP2 TOTAL ENERGY:     -195.000362606 Eh
---------------------------------------

The final MP2 gradient
  0:  -0.00002643  -0.00005055  -0.00000105
  1:   0.00000374   0.00001835  -0.00000530
  2:   0.00001523  -0.00003822  -0.00003123
  3:   0.00008766   0.00003980   0.00002249
  4:  -0.00007132   0.00006361  -0.00000272
  5:  -0.00001739   0.00001315   0.00000101
  6:  -0.00001118  -0.00000208   0.00001321
  7:   0.00000205  -0.00001541  -0.00000845
  8:   0.00000285  -0.00002521   0.00000305
  9:   0.00001535  -0.00000504   0.00001786
 10:   0.00000849   0.00000599   0.00000618
 11:  -0.00001195   0.00000744  -0.00000771
 12:   0.00000188   0.00000119   0.00000425

-----------------------------------
NORM OF THE MP2 GRADIENT:  0.000167
-----------------------------------

Maximum memory used throughout the entire MP2-calculation: 50.1 MB


-------------------------------------------------------------------------------
                          DFT DISPERSION CORRECTION                            
                                                                               
                                DFTD4 V3.4.0                                   
-------------------------------------------------------------------------------
The REV-DSD-PBEP86-2021 functional is recognized
A user input s6-coefficient scaling factor has been recognized
A user input a1-coefficient scaling factor has been recognized
A user input s8-coefficient scaling factor has been recognized
A user input a2-coefficient scaling factor has been recognized
A user input s9-coefficient scaling factor has been recognized
Active option DFTDOPT                   ...         5   

-------------------------   ----------------
Dispersion correction           -0.006586062
-------------------------   ----------------


-------------------------   --------------------
FINAL SINGLE POINT ENERGY      -195.006948667186
-------------------------   --------------------

                                *** OPTIMIZATION RUN DONE ***



           ************************************************************
           *        Program running with 8 parallel MPI-processes     *
           *              working on a common directory               *
           ************************************************************

------------------------------------------------------------------------------
                              ORCA PROPERTY CALCULATIONS
------------------------------------------------------------------------------

GBWName                                 ... opt.gbw
Number of atoms                         ...     13
Number of basis functions               ...    267
Max core memory                         ...  10000 MB

Electric properties:
Dipole moment                           ... YES
Quadrupole moment                       ...  NO
Static polarizability (Dipole/Dipole)   ...  NO
Static polarizability (Dipole/Quad.)    ...  NO
Static polarizability (Quad./Quad.)     ...  NO
Static polarizability (Velocity)        ...  NO
Static hyperpolarizability              ...  NO

Atomic electric properties:
Dipole moment                           ...  NO
Quadrupole moment                       ...  NO
Static polarizability                   ...  NO

Choice of electric origin               ... Center of mass
Position of electric origin             ...     1.257596     2.011932     0.141325

General magnetic properties:
Magnetizability                         ...  NO

EPR properties:
g-Tensor (aka g-matrix)                 ...  NO
Zero-Field splitting spin-orbit         ...  NO
Zero-field splitting spin-spin          ...  NO
Hyperfine couplings                     ...  NO (   0 nuclei)
Quadrupole couplings                    ...  NO (   0 nuclei)
Contact density                         ...  NO (   0 nuclei)

NMR properties:
Chemical shifts                         ...  NO (   0 nuclei)
Spin-rotation constants                 ...  NO (   0 nuclei)
Spin-spin couplings                     ...  NO (   0 nuclei,    0 pairs)

Choice of magnetic origin               ... GIAO
Position of magnetic origin             ...     0.000000     0.000000     0.000000

Properties with geometric perturbations:
SCF Hessian                             ...  NO
IR spectrum                             ...  NO
VCD spectrum                            ...  NO
X-ray spectroscopy properties:
SCF XES/XAS/RIXS spectra                ...  NO

SCF SOC stabilization energy            ...  NO
Diagonal Born-Oppenheimer correction    ...  NO

-------------
DIPOLE MOMENT
-------------

Method             : SCF
Type of density    : Electron Density
Multiplicity       :   1
Irrep              :   0
Energy             :  -194.5608083939018798 Eh
Basis              : AO
                                X                 Y                 Z
Electronic contribution:      0.001281449      -1.704805009       0.016585530
Nuclear contribution   :     -0.001250892       1.787194464      -0.051228957
                        -----------------------------------------
Total Dipole Moment    :      0.000030557       0.082389455      -0.034643427
                        -----------------------------------------
Magnitude (a.u.)       :      0.089376676
Magnitude (Debye)      :      0.227177457



--------------------
Rotational spectrum 
--------------------
 
Rotational constants in cm-1:             0.244557             0.242089             0.132349 
Rotational constants in MHz :          7331.631117          7257.656147          3967.736048 

Dipole components along the rotational axes: 
x,y,z [a.u.] :    -0.000000     0.080224    -0.039400 
x,y,z [Debye]:    -0.000001     0.203913    -0.100146 

 

-------------
DIPOLE MOMENT
-------------

Method             : MP2
Type of density    : Electron Density
Multiplicity       :   1
Level              : Unrelaxed density
Irrep              :   0
Energy             :     0.0000000000000000 Eh
Basis              : AO
                                X                 Y                 Z
Electronic contribution:      0.001280467      -1.704293950       0.016841488
Nuclear contribution   :     -0.001250892       1.787194464      -0.051228957
                        -----------------------------------------
Total Dipole Moment    :      0.000029575       0.082900514      -0.034387469
                        -----------------------------------------
Magnitude (a.u.)       :      0.089749619
Magnitude (Debye)      :      0.228125402



--------------------
Rotational spectrum 
--------------------
 
Rotational constants in cm-1:             0.244557             0.242089             0.132349 
Rotational constants in MHz :          7331.631117          7257.656147          3967.736048 

Dipole components along the rotational axes: 
x,y,z [a.u.] :    -0.000000     0.080749    -0.039174 
x,y,z [Debye]:    -0.000000     0.205248    -0.099572 

 

-------------
DIPOLE MOMENT
-------------

Method             : MP2
Type of density    : Electron Density
Multiplicity       :   1
Level              : Relaxed density
Irrep              :   0
Energy             :     0.0000000000000000 Eh
Basis              : AO
                                X                 Y                 Z
Electronic contribution:      0.001279043      -1.709905645       0.018964079
Nuclear contribution   :     -0.001250892       1.787194464      -0.051228957
                        -----------------------------------------
Total Dipole Moment    :      0.000028151       0.077288819      -0.032264878
                        -----------------------------------------
Magnitude (a.u.)       :      0.083753118
Magnitude (Debye)      :      0.212883508



--------------------
Rotational spectrum 
--------------------
 
Rotational constants in cm-1:             0.244557             0.242089             0.132349 
Rotational constants in MHz :          7331.631117          7257.656147          3967.736048 

Dipole components along the rotational axes: 
x,y,z [a.u.] :    -0.000000     0.075271    -0.036727 
x,y,z [Debye]:    -0.000000     0.191324    -0.093352 

 

Dipole moment calculation done in   0.1 sec 

Maximum memory used throughout the entire PROP-calculation: 12.9 MB

--------------------------------
SUGGESTED CITATIONS FOR THIS RUN
--------------------------------

Below you find a list of papers that are relevant to this ORCA run
We neither can nor want to force you to cite these papers, but we appreciate if you do
You receive ORCA, which is the product of decades of hard work by many enthusiastic individuals, for free
The only thing we kindly ask in return is that you cite our papers,
We deeply appreciate it, if you show your appreciation for ORCA by not just citing the generic ORCA reference.

Please note that relegating all ORCA citations to the supporting information does *not* help us.
SI sections are not indexed - citations you put there will not count into any citation statistics
But we need these citations in order to attract the funding resources that allow us to do what we are doing

Therefore, if you are a happy ORCA user, please consider citing a few of the papers listed below in the main body of your paper

In addition to the list printed below, the program has created the file opt.bibtex that contains the list in bibtex format
You can import this file easily into all common literature databanks and citation aid programs


List of essential papers. We consider these as the minimum necessary citations

  1. Neese, F.
     Software update: the ORCA program system, version 6.0
     WIRES Comput. Molec. Sci. 2025 15(1), e70019
     doi.org/10.1002/wcms.7019

List of papers to cite with high priority. The work reported in these papers was absolutely
necessary for this run to complete.
Our perspective: the developers of density functionals and basis sets usually get cited in chemistry papers
Good! But without the algorithms to do something with them, the functionals or basis sets would not do anything.
Hence, in our opinion, the algorithm design and method developments papers are equally worthy of getting cited

  1. Neese, F.
     An improvement of the resolution of the identity approximation for the formation of the Coulomb matrix
     J. Comp. Chem. 2003 24(14), 1740-1747
     doi.org/10.1002/jcc.10318
  2. Neese, F.; Schwabe, T.; Grimme, S.
     Analytic derivatives for perturbatively corrected 'double hybrid' density functionals: Theory, implementation, and applications
     J. Chem. Phys. 2007 126(12), Art. No. 124115
     doi.org/10.1063/1.2712433
  3. Neese, F.; Wennmohs, F.; Hansen, A.; Becker, U.
     Efficient, approximate and parallel Hartree-Fock and hybrid DFT calculations. A 'chain-of-spheres' algorithm for the Hartree-Fock exchange
     Chem. Phys. 2009 356(1-3), 98-109
     doi.org/10.1016/j.chemphys.2008.10.036
  4. Kossmann, S.; Neese, F.
     Efficient Structure Optimization with Second-Order Many-Body Perturbation Theory: The RIJCOSX-MP2 Method
     J. Theo. Comp. Chem. 2010 6 , 2325-2338
     doi.org/10.1021/ct100199k
  5. Caldeweyher, E.; Bannwarth, C.; Grimme, S.
     Extension of the D3 dispersion coefficient model
     J. Chem. Phys. 2017 147 , 034112
     doi.org/10.1063/1.4993215
  6. Caldeweyher, E.; Ehlert, S.; Hansen, A.; Neugebauer, H.; Spicher, S.; Bannwarth, C.; Grimme, S.
     A generally applicable atomic-charge dependent London dispersion correction
     J. Chem. Phys. 2019 150 , 154122
     doi.org/10.1063/1.5090222
  7. Caldeweyher, E.; Mewes, J.; Ehlert, S.; Grimme, S.
     Extension and evaluation of the D4 London-dispersion model for periodic systems
     Phys. Chem. Chem. Phys. 2020 22(16), 8499-8512
     doi.org/10.1039/D0CP00502A
  8. Helmich-Paris, B.; de Souza, B.; Neese, F.; Izsák, R.
     An improved chain of spheres for exchange algorithm
     J. Chem. Phys. 2021 155(10), 104109
     doi.org/10.1063/5.0058766
  9. Neese, F.
     The SHARK Integral Generation and Digestion System
     J. Comp. Chem. 2022 44(3), 381
     doi.org/10.1002/jcc.26942
 10. Wittmann, L.; Gordiy, I.; Friede, M.; Helmich-Paris, B.; Grimme, S.; Hansen, A.; Bursch, M.
     Extension of the D3 and D4 London Dispersion Corrections to the full Actinides Series
     Phys. Chem. Chem. Phys. 2024 26(32), 21379-21394
     doi.org/10.1039/D4CP01514B

List of suggested additional citations. These are papers that are important in the 'surrounding' of 
of this run, or papers that preceded the highly important papers. If you like your results we are grateful for a citation.

  1. Izsak, R.; Neese, F.
     An overlap fitted chain of spheres exchange method
     J. Chem. Phys. 2011 135 , 144105
     doi.org/10.1063/1.3646921
  2. Izsak, R.; Hansen, A.; Neese, F.
     The resolution of identity and chain of spheres approximations for the LPNO-CCSD singles Fock term
     Molec. Phys. 2012 110 , 2413-2417
     doi.org/10.1080/00268976.2012.687466
  3. Neese, F.
     The ORCA program system
     WIRES Comput. Molec. Sci. 2012 2(1), 73-78
     doi.org/10.1002/wcms.81
  4. Izsak, R.; Neese, F.; Klopper, W.
     Robust fitting techniques in the chain of spheres approximation to the Fock exchange: The role of the complementary space
     J. Chem. Phys. 2013 139 , 
     doi.org/10.1063/1.4819264
  5. Neese, F.
     Software update: the ORCA program system, version 4.0
     WIRES Comput. Molec. Sci. 2018 8(1), 1-6
     doi.org/10.1002/wcms.1327
  6. Neese, F.; Wennmohs, F.; Becker, U.; Riplinger, C.
     The ORCA quantum chemistry program package
     J. Chem. Phys. 2020 152(22), 224108
     doi.org/10.1063/5.0004608
  7. Neese, F.
     Software update: The ORCA program system—Version 5.0
     WIRES Comput. Molec. Sci. 2022 12(1), e1606
     doi.org/10.1002/wcms.1606

List of optional additional citations

  1. Neese, F.
     Approximate second-order SCF convergence for spin unrestricted wavefunctions
     Chem. Phys. Lett. 2000 325(1-3), 93-98
     doi.org/10.1016/s0009-2614(00)00662-x

Timings for individual modules:

Sum of individual times          ...      190.906 sec (=   3.182 min)
Startup calculation              ...       17.066 sec (=   0.284 min)   8.9 %
SCF iterations                   ...       78.649 sec (=   1.311 min)  41.2 %
Property calculations            ...        1.799 sec (=   0.030 min)   0.9 %
MP2 module                       ...       93.346 sec (=   1.556 min)  48.9 %
Geometry relaxation              ...        0.045 sec (=   0.001 min)   0.0 %
                             ****ORCA TERMINATED NORMALLY****
TOTAL RUN TIME: 0 days 0 hours 3 minutes 23 seconds 839 msec
